Protein in water
 5889
    1TYR      N    1   3.170   3.643   2.987 -0.0740  0.0974 -0.2574
    1TYR     H1    2   3.094   3.578   2.958 -0.8912 -0.0534  2.0501
    1TYR     H2    3   3.234   3.641   2.905 -1.5630 -0.0482 -1.4675
    1TYR     H3    4   3.219   3.606   3.071 -1.0219  0.7217  0.5907
    1TYR     CA    5   3.133   3.780   3.019 -0.3130  0.4781 -0.1451
    1TYR     HA    6   3.220   3.835   3.053 -0.3458  0.8686 -0.6796
    1TYR     CB    7   3.079   3.860   2.901  0.3532  0.0833  0.1880
    1TYR    HB1    8   3.139   3.853   2.808 -1.7070  1.1095 -1.3027
    1TYR    HB2    9   2.990   3.810   2.858 -0.7077  2.0933 -0.0557
    1TYR     CG   10   3.052   4.013   2.910 -0.1750 -0.2359  0.7072
    1TYR    CD1   11   2.920   4.061   2.921 -0.5149 -0.2031  0.3518
    1TYR    HD1   12   2.840   3.989   2.916  0.7406 -1.6174 -0.1242
    1TYR    CE1   13   2.888   4.198   2.896 -0.3323 -0.2746 -0.2926
    1TYR    HE1   14   2.786   4.234   2.899  0.1231  1.0710 -0.1017
    1TYR     CZ   15   2.994   4.290   2.877 -0.9673  0.2994  0.0272
    1TYR     OH   16   2.966   4.420   2.862 -0.3197 -0.1611  0.2539
    1TYR     HH   17   3.040   4.479   2.844 -1.5058  1.1793 -0.4243
    1TYR    CD2   18   3.152   4.106   2.886 -0.9168  1.3492 -0.7204
    1TYR    HD2   19   3.251   4.068   2.868 -1.1901  0.1778  0.1269
    1TYR    CE2   20   3.122   4.244   2.877 -0.3189 -0.2665 -0.0357
    1TYR    HE2   21   3.212   4.303   2.864  2.1706 -3.4634  1.3003
    1TYR      C   22   3.037   3.772   3.143 -0.0795 -0.9391 -0.1417
    1TYR      O   23   3.084   3.737   3.250 -0.2518  0.4293  0.3968
    2TYR      N   24   2.908   3.814   3.135 -0.7202 -0.1461  0.6535
    2TYR     HN   25   2.867   3.835   3.046  1.7790  2.5710 -0.0419
    2TYR     CA   26   2.826   3.826   3.254 -0.4213 -0.4607  0.2589
    2TYR     HA   27   2.877   3.794   3.343  1.0101 -0.1898 -0.4326
    2TYR     CB   28   2.788   3.971   3.276  0.0563  0.1227 -0.1922
    2TYR    HB1   29   2.748   4.015   3.182  1.5385  0.7407 -0.5693
    2TYR    HB2   30   2.718   3.975   3.361 -2.1343 -0.0422 -1.8999
    2TYR     CG   31   2.910   4.053   3.312  0.3005  0.2106 -0.4882
    2TYR    CD1   32   3.009   4.025   3.412  0.0152  0.6033  0.3616
    2TYR    HD1   33   2.988   3.938   3.472 -1.9246  0.5182 -0.3495
    2TYR    CE1   34   3.116   4.106   3.440  0.2374 -0.1462  0.1283
    2TYR    HE1   35   3.182   4.079   3.521 -1.9490 -1.1528  1.6643
    2TYR     CZ   36   3.141   4.211   3.350 -0.5451  0.3959 -0.2942
    2TYR     OH   37   3.251   4.296   3.363  0.2491 -0.4670  0.2686
    2TYR     HH   38   3.303   4.278   3.441  1.2729  0.0927 -0.2713
    2TYR    CD2   39   2.930   4.166   3.245 -0.4172  0.9564 -0.3286
    2TYR    HD2   40   2.867   4.189   3.159  1.0489  0.8976 -1.4590
    2TYR    CE2   41   3.045   4.244   3.260  0.7100  0.4738  0.2000
    2TYR    HE2   42   3.048   4.341   3.212 -2.5077  1.2830  1.3994
    2TYR      C   43   2.707   3.745   3.224  0.2545 -0.6420  1.3854
    2TYR      O   44   2.663   3.746   3.106  0.5642  0.6049 -0.3950
    3ASP      N   45   2.651   3.680   3.325 -0.7030 -0.3843  0.2385
    3ASP     HN   46   2.687   3.685   3.417 -0.4026  1.7961  0.0529
    3ASP     CA   47   2.539   3.587   3.301  0.4493 -0.5810  0.0993
    3ASP     HA   48   2.562   3.535   3.209  0.1187  0.1386 -0.3994
    3ASP     CB   49   2.529   3.489   3.423  0.2840 -0.4893  1.1915
    3ASP    HB1   50   2.522   3.545   3.518  1.9561  0.0192  1.0483
    3ASP    HB2   51   2.441   3.423   3.411  0.1627  0.0292 -1.4444
    3ASP     CG   52   2.664   3.417   3.429 -1.4128 -0.4599 -0.0327
    3ASP    OD1   53   2.710   3.397   3.546 -0.1635 -0.2037 -0.3543
    3ASP    OD2   54   2.721   3.370   3.327 -0.4147  0.6032 -0.7600
    3ASP      C   55   2.403   3.674   3.288  0.5953 -0.3463  0.3250
    3ASP      O   56   2.376   3.753   3.376  0.3707 -0.0810 -0.0024
    4PRO      N   57   2.323   3.660   3.179  0.0460 -0.7151 -0.3001
    4PRO     CD   58   2.364   3.599   3.051 -0.1482  1.0078 -0.6979
    4PRO    HD1   59   2.349   3.489   3.058  1.5149  0.8033  0.2366
    4PRO    HD2   60   2.467   3.625   3.020  1.0288 -1.9183  0.4275
    4PRO     CA   61   2.186   3.708   3.174  0.3473 -0.3302 -0.4230
    4PRO     HA   62   2.187   3.815   3.186 -3.8336 -0.1383 -0.3085
    4PRO     CB   63   2.133   3.664   3.037  0.1118  0.0027  0.2622
    4PRO    HB1   64   2.078   3.567   3.033  2.9133 -1.7266  0.6907
    4PRO    HB2   65   2.065   3.745   3.004 -1.6885 -1.0839  1.1159
    4PRO     CG   66   2.261   3.657   2.949  0.1798  0.8361 -0.5142
    4PRO    HG1   67   2.242   3.595   2.859  1.1394  1.2383 -1.0066
    4PRO    HG2   68   2.305   3.754   2.918 -2.0533  1.5751 -1.6040
    4PRO      C   69   2.108   3.653   3.295  0.3830  0.1270 -0.1157
    4PRO      O   70   2.137   3.547   3.345 -0.5702  0.0079  0.3714
    5GLU      N   71   2.012   3.728   3.348  0.1164  0.6303  0.1820
    5GLU     HN   72   1.986   3.809   3.296 -1.4377 -0.8835 -1.5425
    5GLU     CA   73   1.929   3.714   3.466  0.7102 -0.0194  0.2141
    5GLU     HA   74   1.888   3.813   3.463 -0.8029 -0.6327 -0.3094
    5GLU     CB   75   1.823   3.598   3.453 -0.6807  0.1323 -0.5769
    5GLU    HB1   76   1.878   3.502   3.456  0.1116  0.5733 -0.5329
    5GLU    HB2   77   1.761   3.594   3.545  1.8891 -1.8469  1.2207
    5GLU     CG   78   1.722   3.599   3.342  0.5524 -0.4548  0.2959
    5GLU    HG1   79   1.762   3.580   3.240 -0.8832 -1.0573 -0.1886
    5GLU    HG2   80   1.662   3.507   3.361  1.6990 -1.6757 -1.6039
    5GLU     CD   81   1.632   3.729   3.335 -0.5423 -0.3022 -1.4810
    5GLU    OE1   82   1.627   3.791   3.228  0.8945  0.1848 -0.1136
    5GLU    OE2   83   1.570   3.767   3.438 -0.4797 -0.7479 -0.3565
    5GLU      C   84   2.002   3.713   3.594 -0.1649  0.6232  0.6171
    5GLU      O   85   1.952   3.768   3.692  0.3666 -0.0266  0.4690
    6THR      N   86   2.107   3.627   3.611 -0.7249  0.1093 -0.3065
    6THR     HN   87   2.136   3.568   3.536  1.5346 -0.2119  0.7367
    6THR     CA   88   2.169   3.594   3.739 -0.1610 -0.0984 -0.0972
    6THR     HA   89   2.101   3.612   3.821  2.8395 -0.3130  2.6684
    6THR     CB   90   2.211   3.450   3.751 -0.3601  0.1039 -0.1201
    6THR     HB   91   2.243   3.432   3.856  1.8874  3.8020  0.0257
    6THR    OG1   92   2.322   3.408   3.676 -0.2525 -1.0795 -0.4385
    6THR    HG1   93   2.399   3.453   3.712 -0.1971 -1.8344  0.4199
    6THR    CG2   94   2.110   3.356   3.706  0.4478  0.7958 -0.1056
    6THR   HG21   95   2.125   3.248   3.731 -2.1561 -0.0154 -1.5965
    6THR   HG22   96   2.013   3.380   3.753  0.6162 -1.5424  1.6404
    6THR   HG23   97   2.097   3.369   3.596  1.3332  1.3888 -0.1510
    6THR      C   98   2.285   3.687   3.773 -0.6719 -0.4696  0.2983
    6THR      O   99   2.325   3.704   3.893  0.0772  0.0804 -0.0251
    7GLY      N  100   2.348   3.744   3.668 -0.2174  0.0798  0.4750
    7GLY     HN  101   2.309   3.741   3.576 -0.0787  1.2496  0.3620
    7GLY     CA  102   2.456   3.838   3.694 -0.1526  0.2831  0.4453
    7GLY    HA1  103   2.517   3.811   3.778 -0.0636  1.0025  0.6182
    7GLY    HA2  104   2.501   3.843   3.596  0.1793 -0.7490  0.5440
    7GLY      C  105   2.414   3.980   3.728 -0.1452  0.3016 -0.0803
    7GLY      O  106   2.307   4.019   3.694 -0.1501  0.8043  0.3155
    8THR      N  107   2.497   4.059   3.799 -0.0117  0.4859 -0.6157
    8THR     HN  108   2.567   4.010   3.850 -0.6958 -0.4041 -0.4921
    8THR     CA  109   2.470   4.199   3.831  0.3241  0.0970 -0.2597
    8THR     HA  110   2.369   4.219   3.798  0.9305  0.2714 -2.1625
    8THR     CB  111   2.471   4.243   3.980 -0.8516  0.5339 -0.1289
    8THR     HB  112   2.576   4.227   4.011 -1.4459 -0.8789  1.3099
    8THR    OG1  113   2.373   4.164   4.047 -0.0808 -0.1101 -0.6463
    8THR    HG1  114   2.419   4.143   4.129 -0.2266  1.3510 -0.1685
    8THR    CG2  115   2.437   4.386   3.997  0.8019 -1.0561  0.3693
    8THR   HG21  116   2.502   4.462   3.950  1.5281 -1.3353  0.8993
    8THR   HG22  117   2.334   4.397   3.957  1.0778 -0.0706 -0.1037
    8THR   HG23  118   2.436   4.408   4.106  1.4259 -0.3996  0.2523
    8THR      C  119   2.556   4.290   3.747 -0.1594 -0.1676  0.1819
    8THR      O  120   2.678   4.302   3.770 -0.2130 -0.0170  0.8115
    9TRP      N  121   2.507   4.354   3.639 -0.4571  0.1635 -0.2205
    9TRP     HN  122   2.423   4.319   3.598 -2.5777  2.4440  1.8001
    9TRP     CA  123   2.571   4.456   3.566 -0.6053  0.3212  0.2665
    9TRP     HA  124   2.658   4.396   3.543 -1.4564  0.0343 -2.5592
    9TRP     CB  125   2.492   4.489   3.437  0.4923  0.5573 -0.0071
    9TRP    HB1  126   2.394   4.534   3.464 -0.0311 -0.9333  0.6929
    9TRP    HB2  127   2.548   4.567   3.382  1.5004 -0.7998 -0.9701
    9TRP     CG  128   2.468   4.363   3.355 -0.6992  0.3446 -0.2583
    9TRP    CD1  129   2.544   4.305   3.254  0.0462 -0.0014 -0.7172
    9TRP    HD1  130   2.634   4.343   3.206 -0.5197 -0.2978 -2.0509
    9TRP    NE1  131   2.487   4.187   3.214 -0.0367  0.1289 -0.2897
    9TRP    HE1  132   2.528   4.109   3.172  0.8667 -0.1789  1.0940
    9TRP    CE2  133   2.370   4.163   3.283 -0.9157  0.2987  0.1309
    9TRP    CD2  134   2.358   4.271   3.373  0.4766 -0.6736 -0.9045
    9TRP    CE3  135   2.247   4.282   3.456  0.8961  1.0209 -1.0767
    9TRP    HE3  136   2.235   4.366   3.523  0.3805  0.0447  0.0902
    9TRP    CZ3  137   2.142   4.179   3.448  0.1844 -0.4132  0.6210
    9TRP    HZ3  138   2.056   4.177   3.512  0.9210  0.9737  1.7172
    9TRP    CZ2  139   2.281   4.059   3.277  0.3618  0.5155  0.3398
    9TRP    HZ2  140   2.286   3.992   3.193  1.4485  0.3783  0.4985
    9TRP    CH2  141   2.165   4.070   3.355  0.3680  0.2450  0.4239
    9TRP    HH2  142   2.083   4.003   3.334  1.2599 -0.5877 -0.4519
    9TRP      C  143   2.613   4.584   3.635  0.2324 -0.3408 -0.1921
    9TRP      O  144   2.526   4.655   3.682 -0.1394  0.6196  0.3988
   10TYR      N  145   2.740   4.631   3.633 -0.3051  0.5199 -0.0379
   10TYR     HN  146   2.810   4.564   3.608 -2.0834 -1.5460  0.2194
   10TYR     CA  147   2.771   4.769   3.666 -2.1296 -0.2713 -0.2770
   10TYR     HA  148   2.681   4.822   3.695 -0.5285  1.6171  1.5334
   10TYR     CB  149   2.861   4.769   3.795 -0.4046  0.7875  0.5338
   10TYR    HB1  150   2.943   4.696   3.777 -1.1266  0.7498 -3.5162
   10TYR    HB2  151   2.902   4.871   3.809  0.5216  0.4216  0.5432
   10TYR     CG  152   2.783   4.737   3.915 -0.3306  0.2857  0.6366
   10TYR    CD1  153   2.804   4.611   3.977 -0.7520 -0.5294  0.8932
   10TYR    HD1  154   2.867   4.541   3.924  0.0034  0.3008  0.6664
   10TYR    CE1  155   2.732   4.571   4.092  0.2473  0.7322 -0.6588
   10TYR    HE1  156   2.720   4.474   4.138 -0.6715  1.3341  0.4063
   10TYR     CZ  157   2.657   4.667   4.156  0.4135  0.8367 -0.5045
   10TYR     OH  158   2.610   4.642   4.288  0.6878 -0.3334 -0.2168
   10TYR     HH  159   2.634   4.552   4.308 -0.4042 -0.5301  0.2673
   10TYR    CD2  160   2.702   4.830   3.987 -0.1064 -0.6144  0.1382
   10TYR    HD2  161   2.702   4.933   3.954  3.0301 -0.2680  0.9214
   10TYR    CE2  162   2.642   4.795   4.109 -0.5112  0.4096 -0.0448
   10TYR    HE2  163   2.600   4.872   4.173  2.2003  1.8982  0.1061
   10TYR      C  164   2.836   4.846   3.540  0.0918 -0.4516 -0.2769
   10TYR    OT1  165   2.918   4.795   3.461  0.4771  0.6062 -0.0336
   10TYR    OT2  166   2.794   4.963   3.529  0.3307 -0.4054  0.1213
   11SOL     OW  167   1.645   3.487   2.532  0.2044 -0.8185 -0.3314
   11SOL    HW1  168   1.559   3.495   2.492  0.7938  1.8383 -1.2885
   11SOL    HW2  169   1.706   3.487   2.458  1.0925 -1.7448  0.3696
   12SOL     OW  170   2.009   0.235   1.262  0.2609  0.1063  0.7441
   12SOL    HW1  171   1.957   0.232   1.183  1.2868 -0.7218  0.0741
   12SOL    HW2  172   2.063   0.314   1.253 -1.7414  1.7361  2.0576
   13SOL     OW  173   3.207   1.723   1.204  0.2255  0.3376  0.3246
   13SOL    HW1  174   3.114   1.721   1.181  0.4048 -2.2902 -0.4385
   13SOL    HW2  175   3.212   1.678   1.288  1.0342 -2.1673 -0.9567
   14SOL     OW  176   2.351   2.150   1.224 -0.4212 -0.1696  0.5101
   14SOL    HW1  177   2.273   2.098   1.205 -1.9500  1.5722  1.6811
   14SOL    HW2  178   2.358   2.150   1.319  0.8942 -0.0620  0.4403
   15SOL     OW  179   3.519   3.900   2.803 -0.6644 -0.0538  0.0941
   15SOL    HW1  180   3.528   3.880   2.896  0.6204 -0.9479 -0.2005
   15SOL    HW2  181   3.606   3.928   2.776 -0.7886 -0.6914 -1.0293
   16SOL     OW  182   0.484   0.233   1.783 -0.3754 -0.2438 -0.2456
   16SOL    HW1  183   0.464   0.320   1.750  1.6293  0.4753  0.3297
   16SOL    HW2  184   0.562   0.206   1.735 -0.3688 -1.3024  0.3282
   17SOL     OW  185   2.869   1.659   1.126  0.2571  0.0361 -0.3720
   17SOL    HW1  186   2.841   1.586   1.181  1.3639  1.2586  1.9759
   17SOL    HW2  187   2.839   1.737   1.173  0.8684  1.1451 -1.7608
   18SOL     OW  188   1.426   1.362   0.588 -0.6176  0.1329 -0.3090
   18SOL    HW1  189   1.517   1.375   0.612 -0.0973 -0.8679 -1.6134
   18SOL    HW2  190   1.391   1.305   0.657  0.2888 -1.0411 -0.7801
   19SOL     OW  191   3.497   3.504   1.720 -0.0210 -0.3505  0.6318
   19SOL    HW1  192   3.562   3.440   1.749  1.4218  0.4288 -0.7306
   19SOL    HW2  193   3.481   3.482   1.629  0.4767  1.1827  0.1491
   20SOL     OW  194   2.184   0.058   2.934  0.2789 -0.5830 -0.6620
   20SOL    HW1  195   2.095   0.028   2.919 -0.5922  0.4152  2.0487
   20SOL    HW2  196   2.190   0.140   2.885  0.5618 -1.7987 -2.7843
   21SOL     OW  197   1.814   0.891   0.763 -0.7739 -0.8196 -0.0789
   21SOL    HW1  198   1.750   0.960   0.780  1.3188  0.7969  1.8384
   21SOL    HW2  199   1.868   0.925   0.692  1.6400  0.6745  2.3159
   22SOL     OW  200   3.006   1.226   1.318 -0.0725  0.0671 -0.4125
   22SOL    HW1  201   3.094   1.228   1.355 -0.2371  0.3268 -0.0299
   22SOL    HW2  202   3.017   1.190   1.230  0.3538 -0.3331 -0.1967
   23SOL     OW  203   0.885   2.416   3.664 -0.1027 -0.4603 -0.0311
   23SOL    HW1  204   0.859   2.505   3.640 -1.0139 -0.5593  0.5648
   23SOL    HW2  205   0.923   2.426   3.751 -0.4498 -0.6952  0.1462
   24SOL     OW  206   3.498   1.656   1.608  0.3802  0.3858  0.0208
   24SOL    HW1  207   3.567   1.603   1.567  0.7952  0.4573  0.6007
   24SOL    HW2  208   3.426   1.655   1.546  0.8204  0.1050 -0.4914
   25SOL     OW  209   2.949   2.930   1.480 -0.0605  0.1268 -0.1837
   25SOL    HW1  210   2.904   2.867   1.423 -0.6776  1.6686 -1.4554
   25SOL    HW2  211   3.025   2.958   1.429  1.6680 -1.3950  1.3886
   26SOL     OW  212   0.599   3.138   3.394  0.1092  0.0049 -0.4745
   26SOL    HW1  213   0.672   3.191   3.362  0.2382  0.6952  0.8655
   26SOL    HW2  214   0.525   3.198   3.396  0.5225  0.5326  2.1477
   27SOL     OW  215   0.154   3.513   2.754  0.3061  0.1691  0.0739
   27SOL    HW1  216   0.192   3.425   2.759  0.1351  0.0823  5.3739
   27SOL    HW2  217   0.069   3.500   2.712  1.2898 -1.6730 -1.4985
   28SOL     OW  218   0.893   1.627   2.042  0.4152 -0.0441 -0.0990
   28SOL    HW1  219   0.989   1.632   2.044  0.4625 -0.1409 -1.2882
   28SOL    HW2  220   0.867   1.638   2.133  1.5099  1.0592  0.1183
   29SOL     OW  221   0.270   3.279   2.775  0.3609 -0.4162  0.1983
   29SOL    HW1  222   0.275   3.204   2.834  3.3422 -0.0825  0.5371
   29SOL    HW2  223   0.356   3.281   2.732  0.9717  3.5761  1.2337
   30SOL     OW  224   0.683   1.760   2.736 -0.5155  0.4017 -0.1203
   30SOL    HW1  225   0.739   1.685   2.717  0.5412  0.2888  2.9274
   30SOL    HW2  226   0.613   1.753   2.671 -0.1770 -2.8925 -0.3459
   31SOL     OW  227   3.593   0.413   3.887  0.0429  0.7846 -0.4849
   31SOL    HW1  228   3.539   0.393   3.811  1.7241  0.7868 -1.7228
   31SOL    HW2  229   3.680   0.433   3.851  0.8162  1.0690  1.4089
   32SOL     OW  230   3.400   0.282   3.572 -0.5910 -0.9283  0.0197
   32SOL    HW1  231   3.479   0.237   3.541  1.7123  1.0681  2.4829
   32SOL    HW2  232   3.385   0.248   3.660 -1.3398  0.0762  0.3035
   33SOL     OW  233   0.234   2.919   0.230  0.0218 -0.3749  0.5368
   33SOL    HW1  234   0.139   2.932   0.222 -0.0624 -0.7817  0.8035
   33SOL    HW2  235   0.242   2.842   0.287  0.4862 -1.0030 -0.3493
   34SOL     OW  236   0.466   1.532   3.418 -0.3105 -0.7657 -0.0687
   34SOL    HW1  237   0.479   1.495   3.505 -0.8278  0.5371  0.5933
   34SOL    HW2  238   0.491   1.462   3.358  1.0246 -1.3485  1.1186
   35SOL     OW  239   1.370   0.634   3.455  0.2242  0.8429  0.1876
   35SOL    HW1  240   1.405   0.724   3.456 -0.7452  1.2293  0.3118
   35SOL    HW2  241   1.427   0.586   3.514  1.0136  1.2726 -0.1948
   36SOL     OW  242   2.875   3.037   0.368  0.0338  0.5653 -0.5515
   36SOL    HW1  243   2.871   3.125   0.331 -0.5660  0.0628 -1.7232
   36SOL    HW2  244   2.793   3.028   0.419  0.9108  1.2966  1.0727
   37SOL     OW  245   3.355   1.519   0.497  0.5117  0.0190 -0.2827
   37SOL    HW1  246   3.387   1.604   0.466  1.0257 -0.6184 -1.5810
   37SOL    HW2  247   3.402   1.455   0.443  0.2461 -1.1021  0.7763
   38SOL     OW  248   2.402   2.213   0.238  0.6233  0.0435  0.2525
   38SOL    HW1  249   2.312   2.232   0.265  0.2482  0.1651 -1.0408
   38SOL    HW2  250   2.453   2.287   0.272  0.0623  0.5253  0.0506
   39SOL     OW  251   2.907   2.412   1.454  0.3674 -0.0228 -0.0476
   39SOL    HW1  252   2.863   2.406   1.539  0.9486  0.9605  0.3432
   39SOL    HW2  253   2.944   2.325   1.441 -1.4766 -0.8187 -0.2963
   40SOL     OW  254   0.917   0.318   3.528  0.1836  0.2949  0.1608
   40SOL    HW1  255   0.858   0.247   3.550  0.3330 -0.0523 -0.5511
   40SOL    HW2  256   0.897   0.340   3.437 -0.9267  2.1947  0.7934
   41SOL     OW  257   1.525   2.915   0.569 -0.0675 -0.5236  0.0956
   41SOL    HW1  258   1.516   2.960   0.653  2.2332 -1.2483  0.8060
   41SOL    HW2  259   1.437   2.919   0.531 -0.7761  1.3863  1.7078
   42SOL     OW  260   1.830   2.395   2.563 -0.0045  0.3098  0.5992
   42SOL    HW1  261   1.799   2.458   2.498  0.0377 -0.1221  0.1640
   42SOL    HW2  262   1.847   2.315   2.514  1.0221  0.2867  0.9719
   43SOL     OW  263   3.576   2.702   0.610  0.0600 -0.6519 -0.5373
   43SOL    HW1  264   3.578   2.732   0.519  0.4423  1.8109  0.1833
   43SOL    HW2  265   3.483   2.705   0.634  0.1653  1.5006 -0.1156
   44SOL     OW  266   3.015   1.925   0.611  0.2065 -0.2619  0.3042
   44SOL    HW1  267   2.921   1.934   0.630  0.0580 -2.2527  0.7369
   44SOL    HW2  268   3.018   1.895   0.521  0.6246  2.7008 -0.7645
   45SOL     OW  269   2.474   2.800   3.887 -0.3529  0.2112 -0.1863
   45SOL    HW1  270   2.514   2.884   3.907  0.1804 -0.0117 -0.2896
   45SOL    HW2  271   2.501   2.743   3.960  0.6212 -0.2933 -0.9233
   46SOL     OW  272   2.771   3.480   1.046  0.0237  0.7537 -0.4104
   46SOL    HW1  273   2.847   3.424   1.063 -1.7572 -0.7939  3.8943
   46SOL    HW2  274   2.803   3.569   1.056  1.4351  0.1616  0.6212
   47SOL     OW  275   3.456   2.623   3.754 -0.0300  0.2157  0.1480
   47SOL    HW1  276   3.458   2.530   3.776 -0.4671 -0.3580 -2.0065
   47SOL    HW2  277   3.493   2.666   3.831  1.0266 -1.7986  0.8594
   48SOL     OW  278   1.836   3.463   0.277  0.0225  0.3350 -0.5605
   48SOL    HW1  279   1.886   3.414   0.211 -0.3674  0.7135 -1.1516
   48SOL    HW2  280   1.894   3.468   0.353  0.0148 -1.1726 -0.4278
   49SOL     OW  281   1.837   2.767   0.708 -0.2797 -0.1567 -0.4809
   49SOL    HW1  282   1.886   2.685   0.701  2.5450  1.3133  0.3847
   49SOL    HW2  283   1.817   2.790   0.618  2.2543  0.0053 -1.0831
   50SOL     OW  284   0.789   1.049   3.385 -0.4404 -0.0068  0.1918
   50SOL    HW1  285   0.840   1.110   3.333 -0.9276  0.4015  0.1902
   50SOL    HW2  286   0.711   1.031   3.333 -0.6543 -0.0502  0.5225
   51SOL     OW  287   1.097   0.606   2.826 -0.4863 -0.1697  0.2367
   51SOL    HW1  288   1.107   0.548   2.901  2.0392  2.7446  2.4120
   51SOL    HW2  289   1.157   0.571   2.760  0.1032 -0.6765  1.0317
   52SOL     OW  290   1.214   2.792   3.454  0.1412  0.2775 -0.3985
   52SOL    HW1  291   1.265   2.728   3.405 -0.4795  0.7584 -1.7224
   52SOL    HW2  292   1.275   2.824   3.522  1.2412  0.0582 -1.2517
   53SOL     OW  293   0.811   0.113   0.055 -0.1136 -0.1375  0.9022
   53SOL    HW1  294   0.877   0.164   0.102 -0.1923 -0.1816  1.0605
   53SOL    HW2  295   0.821   0.139  -0.037 -1.7387  1.9544  1.2412
   54SOL     OW  296   2.965   3.155   1.641 -0.4765  0.2552 -0.2493
   54SOL    HW1  297   2.882   3.200   1.623 -1.6931 -2.4185 -2.0075
   54SOL    HW2  298   2.970   3.087   1.574  3.5960  0.7641 -0.6858
   55SOL     OW  299   2.627   1.090   1.991  0.0468  0.1772  0.2312
   55SOL    HW1  300   2.714   1.099   1.952 -0.0824  0.0552 -0.0845
   55SOL    HW2  301   2.587   1.176   1.979 -1.1799 -0.7013 -2.7691
   56SOL     OW  302   3.180   2.411   3.329 -0.3264  0.2818  0.0112
   56SOL    HW1  303   3.260   2.387   3.283 -0.5954  0.0973 -0.3733
   56SOL    HW2  304   3.191   2.504   3.349  1.8492 -0.6174  3.8433
   57SOL     OW  305   1.184   0.462   1.492 -0.0245  0.0054  0.3537
   57SOL    HW1  306   1.275   0.486   1.511  0.8287 -2.8928  0.4310
   57SOL    HW2  307   1.191   0.394   1.424 -2.1132 -0.5161  0.5875
   58SOL     OW  308   0.201   3.922   1.068  0.6601 -0.0800  0.1953
   58SOL    HW1  309   0.186   3.979   0.993  0.0199 -0.8333 -0.2544
   58SOL    HW2  310   0.291   3.889   1.056 -0.1367 -1.8426 -1.3863
   59SOL     OW  311   1.362   3.463   0.727 -0.5619 -0.1482 -0.1723
   59SOL    HW1  312   1.372   3.440   0.820 -0.5544 -1.8930 -0.5861
   59SOL    HW2  313   1.439   3.516   0.707 -0.1599 -0.4225  0.6131
   60SOL     OW  314   1.355   1.315   2.526 -0.1344  0.3020  0.0898
   60SOL    HW1  315   1.330   1.397   2.567  0.5910  0.1172  0.9321
   60SOL    HW2  316   1.272   1.266   2.517 -0.3910  0.6113  0.7319
   61SOL     OW  317   2.823   0.096   3.690  0.1109  0.0246  0.0461
   61SOL    HW1  318   2.903   0.076   3.738  1.2072  1.4517 -1.0766
   61SOL    HW2  319   2.792   0.178   3.728 -1.0077 -0.6445  0.6473
   62SOL     OW  320   1.487   1.015   2.041 -1.0293 -0.3643  0.2751
   62SOL    HW1  321   1.495   0.930   1.997  1.4869 -1.1251  1.9658
   62SOL    HW2  322   1.492   0.994   2.135  0.6341  1.6706  0.7199
   63SOL     OW  323   3.908   1.711   1.824  0.5165 -0.3993 -0.2384
   63SOL    HW1  324   3.956   1.684   1.902  0.8574  1.8930  0.4011
   63SOL    HW2  325   3.818   1.722   1.854  0.8112  1.3368  0.0861
   64SOL     OW  326   0.484   0.139   0.409  0.2270  0.1918  0.0524
   64SOL    HW1  327   0.523   0.126   0.496  0.4946 -1.0873 -0.2373
   64SOL    HW2  328   0.540   0.203   0.366  2.6125 -2.2000 -0.6656
   65SOL     OW  329   1.866   0.704   1.916  0.0774  0.0890 -0.2845
   65SOL    HW1  330   1.873   0.717   1.822 -0.8845  0.0366 -0.3678
   65SOL    HW2  331   1.957   0.709   1.947  0.6068 -1.4143 -1.4066
   66SOL     OW  332   1.572   3.099   2.033 -0.3731 -0.0592  0.0680
   66SOL    HW1  333   1.574   3.049   2.114  0.4495  2.7526  1.9511
   66SOL    HW2  334   1.481   3.124   2.022 -0.5245 -0.6350 -0.0042
   67SOL     OW  335   1.798   3.428   1.330 -0.4589  0.7072 -0.6525
   67SOL    HW1  336   1.825   3.348   1.284 -1.9003 -0.2817  0.1253
   67SOL    HW2  337   1.877   3.460   1.372  0.3826  0.3125 -1.8847
   68SOL     OW  338   0.357   0.601   0.698  0.0758  0.3052 -0.7262
   68SOL    HW1  339   0.353   0.520   0.647 -0.6127  0.2814 -0.6367
   68SOL    HW2  340   0.390   0.666   0.636 -0.7860  0.2845 -1.2295
   69SOL     OW  341   1.171   0.161   0.339 -0.4019 -0.0374  0.5891
   69SOL    HW1  342   1.146   0.186   0.250 -0.2199  1.9089  1.0435
   69SOL    HW2  343   1.263   0.185   0.345 -0.6832  0.8566  1.6168
   70SOL     OW  344   3.905   0.461   2.422 -0.1309 -0.5323  0.3179
   70SOL    HW1  345   3.938   0.550   2.419 -1.8292  0.1021 -0.6683
   70SOL    HW2  346   3.981   0.407   2.400  0.7856  0.6969  0.3611
   71SOL     OW  347   0.294   0.700   0.229  0.2751 -0.5394 -0.1418
   71SOL    HW1  348   0.212   0.708   0.277 -0.7603 -2.6427 -1.4630
   71SOL    HW2  349   0.274   0.729   0.140  1.1839 -0.3055 -0.2843
   72SOL     OW  350   0.304   0.426   0.246  0.8101 -0.5208 -0.3368
   72SOL    HW1  351   0.252   0.369   0.190 -2.7431  1.6850  0.3990
   72SOL    HW2  352   0.321   0.503   0.192  1.3598 -0.2860  0.1584
   73SOL     OW  353   2.329   3.249   1.975 -0.3585 -0.4068  0.6338
   73SOL    HW1  354   2.342   3.216   2.064  0.0164 -2.0634 -0.0032
   73SOL    HW2  355   2.402   3.212   1.924  0.4574  1.9520 -0.0266
   74SOL     OW  356   0.207   0.703   0.930  0.1553  0.1749  0.2856
   74SOL    HW1  357   0.258   0.670   0.856  0.8992  0.7947  0.5169
   74SOL    HW2  358   0.118   0.714   0.894  0.7689  1.6486 -0.8730
   75SOL     OW  359   1.962   0.468   2.353 -0.2964  0.5786  0.3975
   75SOL    HW1  360   1.946   0.416   2.274 -2.2644  2.2916 -0.4433
   75SOL    HW2  361   2.057   0.467   2.365  0.1106  0.6412 -2.2883
   76SOL     OW  362   2.706   0.155   0.522  0.0365  0.1179  0.0241
   76SOL    HW1  363   2.676   0.139   0.612 -1.0651  1.0131 -0.1614
   76SOL    HW2  364   2.713   0.068   0.483 -3.3320 -0.1919 -0.2042
   77SOL     OW  365   1.239   0.310   1.285  0.0571  0.7604 -0.2013
   77SOL    HW1  366   1.308   0.325   1.220  1.2460  0.8950  1.0554
   77SOL    HW2  367   1.209   0.220   1.268  0.9913  0.4709 -0.3445
   78SOL     OW  368   3.511   0.496   2.023  0.0502  0.1357  0.0276
   78SOL    HW1  369   3.484   0.588   2.023 -1.4049 -0.2693 -0.1630
   78SOL    HW2  370   3.501   0.468   1.931  1.4067  0.0189 -0.1158
   79SOL     OW  371   1.905   1.927   2.247  0.0921  0.1918 -0.1498
   79SOL    HW1  372   1.869   1.855   2.297 -0.2028  1.2638  1.2396
   79SOL    HW2  373   1.864   1.920   2.161  0.1467 -1.3219 -0.0663
   80SOL     OW  374   0.093   0.097   1.309  0.3481  0.3667 -0.6529
   80SOL    HW1  375   0.130   0.042   1.240  0.1748 -0.0517 -0.4150
   80SOL    HW2  376   0.131   0.183   1.293  1.8783 -0.1740 -0.0745
   81SOL     OW  377   3.426   3.099   3.181  0.4384  0.4518  0.1418
   81SOL    HW1  378   3.361   3.029   3.182  1.2908 -0.3730 -0.0696
   81SOL    HW2  379   3.500   3.064   3.231  1.4595  0.6001 -1.2093
   82SOL     OW  380   2.968   3.313   1.048  0.0438 -0.6233  0.0191
   82SOL    HW1  381   2.986   3.274   0.962  0.2840  1.8658 -1.1428
   82SOL    HW2  382   3.052   3.312   1.094  0.6693  0.8031 -1.0222
   83SOL     OW  383   1.695   1.100   1.523 -0.3599 -0.0290 -0.0323
   83SOL    HW1  384   1.674   1.118   1.614 -0.1737  0.2844 -0.0533
   83SOL    HW2  385   1.785   1.068   1.524 -1.0847 -2.2893  0.1730
   84SOL     OW  386   0.141   0.221   0.142  0.2654 -0.2420  0.3020
   84SOL    HW1  387   0.097   0.168   0.075  0.2710  1.5248 -1.2165
   84SOL    HW2  388   0.106   0.190   0.225 -0.0495 -2.2649 -0.5342
   85SOL     OW  389   1.942   2.945   0.132 -0.0374 -0.1403  0.1610
   85SOL    HW1  390   1.949   2.948   0.037 -0.8664 -1.2367  0.0481
   85SOL    HW2  391   1.879   2.875   0.150  0.7279 -0.5260  1.5366
   86SOL     OW  392   1.644   2.399   1.332  0.2193 -0.4231  0.1253
   86SOL    HW1  393   1.711   2.398   1.400  0.6465  0.2836 -0.2798
   86SOL    HW2  394   1.562   2.413   1.380  0.8656  4.3655  0.2937
   87SOL     OW  395   1.097   2.645   1.948 -0.2131 -0.3354 -0.4487
   87SOL    HW1  396   1.004   2.639   1.925 -0.4666  1.1200  0.0867
   87SOL    HW2  397   1.099   2.707   2.021  1.1483 -0.6643 -0.1849
   88SOL     OW  398   2.458   0.067   2.820 -0.2530  0.4286  0.0170
   88SOL    HW1  399   2.407   0.006   2.767  0.4282 -2.2074  2.1084
   88SOL    HW2  400   2.395   0.104   2.882 -0.4089  0.6605 -0.2805
   89SOL     OW  401   2.934   2.742   0.253  0.1504  0.0624 -0.4638
   89SOL    HW1  402   2.895   2.825   0.280  0.9398 -0.5553  3.0209
   89SOL    HW2  403   2.865   2.677   0.266 -0.0191 -0.0622 -1.8260
   90SOL     OW  404   0.621   0.540   0.139 -0.7867  0.4210 -0.2212
   90SOL    HW1  405   0.601   0.606   0.206 -1.5138 -1.3888  1.4454
   90SOL    HW2  406   0.539   0.528   0.091 -0.3670  1.4476 -1.2329
   91SOL     OW  407   3.709   0.968   3.964 -0.7394  0.4053  0.0129
   91SOL    HW1  408   3.741   0.912   3.893 -0.1848  0.7191  0.0110
   91SOL    HW2  409   3.787   1.010   3.999 -0.5762 -1.8200  2.6764
   92SOL     OW  410   0.390   2.476   1.347 -0.6086  0.5466 -0.2059
   92SOL    HW1  411   0.388   2.565   1.381 -1.3634  0.6842 -0.6117
   92SOL    HW2  412   0.315   2.432   1.387 -0.3960  0.1636 -0.2133
   93SOL     OW  413   0.333   2.383   2.223  0.4344 -0.8977  0.8479
   93SOL    HW1  414   0.349   2.314   2.159  1.0210 -1.9400  2.0691
   93SOL    HW2  415   0.420   2.411   2.250  0.2522  1.4442 -0.7165
   94SOL     OW  416   0.626   1.403   1.836  0.2515 -0.3626 -0.1722
   94SOL    HW1  417   0.634   1.381   1.929  1.3347 -1.7410 -0.5556
   94SOL    HW2  418   0.696   1.353   1.794 -1.3324 -1.1957 -1.9582
   95SOL     OW  419   2.302   3.318   0.397  0.7135  0.0066  0.6669
   95SOL    HW1  420   2.280   3.387   0.460  2.7448  0.7442  0.6329
   95SOL    HW2  421   2.288   3.237   0.446  4.0885  0.5623  2.9068
   96SOL     OW  422   0.402   1.646   0.808  0.1523 -0.0565 -0.1727
   96SOL    HW1  423   0.458   1.704   0.859  2.6415 -2.3555 -0.0571
   96SOL    HW2  424   0.319   1.644   0.856  0.4503  2.2203  0.5480
   97SOL     OW  425   1.918   0.268   2.182 -0.4363  0.7088  0.2342
   97SOL    HW1  426   1.987   0.317   2.137 -1.7638  2.8044  0.3675
   97SOL    HW2  427   1.920   0.181   2.141  1.7849  0.9194 -0.2436
   98SOL     OW  428   0.388   0.725   3.445 -0.1771 -0.1350 -0.6803
   98SOL    HW1  429   0.419   0.684   3.364 -2.4828 -0.9665 -1.1975
   98SOL    HW2  430   0.293   0.722   3.439 -0.4102  0.5527  1.7076
   99SOL     OW  431   2.955   2.121   2.978  0.2982 -0.1057 -0.2214
   99SOL    HW1  432   2.931   2.204   3.019 -0.4059 -0.3434 -0.1444
   99SOL    HW2  433   2.925   2.054   3.039 -1.6610 -0.5001 -1.5378
  100SOL     OW  434   0.269   0.353   3.874 -0.0603 -0.5904  0.0339
  100SOL    HW1  435   0.338   0.305   3.919  0.3699  0.7928  0.9095
  100SOL    HW2  436   0.188   0.320   3.913  0.3168  1.3892  2.8551
  101SOL     OW  437   1.031   2.160   2.013  0.1039 -0.0146  0.3287
  101SOL    HW1  438   1.032   2.071   2.047 -0.0037  0.2852  1.1405
  101SOL    HW2  439   1.009   2.214   2.089 -0.1116  0.6752 -0.2180
  102SOL     OW  440   1.712   0.275   1.746 -0.0159  0.0258 -0.4132
  102SOL    HW1  441   1.757   0.192   1.762 -0.3217 -0.3440 -1.4046
  102SOL    HW2  442   1.642   0.253   1.684 -0.0172  1.0558 -0.7968
  103SOL     OW  443   2.246   1.176   2.011  0.5686  0.2536  0.6944
  103SOL    HW1  444   2.173   1.171   1.949  0.4134 -0.5425  0.9305
  103SOL    HW2  445   2.204   1.187   2.096  0.7360  0.1815  0.7858
  104SOL     OW  446   2.452   1.696   3.568  0.3782  0.4476  0.5422
  104SOL    HW1  447   2.417   1.651   3.645  1.0636  0.5621  0.9284
  104SOL    HW2  448   2.443   1.632   3.497  2.1578 -0.6745  1.2642
  105SOL     OW  449   1.347   0.133   3.457  0.1031  0.4605 -0.2332
  105SOL    HW1  450   1.296   0.127   3.376  0.4637  1.7109 -0.5723
  105SOL    HW2  451   1.362   0.042   3.482  3.9677 -0.3157 -4.1534
  106SOL     OW  452   1.197   0.293   0.946 -0.0325  0.1751  0.2102
  106SOL    HW1  453   1.292   0.295   0.956 -0.0298  1.0071  0.0531
  106SOL    HW2  454   1.163   0.342   1.020 -0.3254  0.2160  0.0520
  107SOL     OW  455   2.259   2.281   3.691  0.0324  0.1586 -0.0452
  107SOL    HW1  456   2.212   2.200   3.671 -0.9615  0.6915  0.0931
  107SOL    HW2  457   2.191   2.345   3.710  0.8019  1.0581 -0.2266
  108SOL     OW  458   1.017   3.878   1.925  1.0194 -0.4371 -0.2172
  108SOL    HW1  459   1.021   3.960   1.975 -0.6174  1.6145 -3.1793
  108SOL    HW2  460   0.961   3.821   1.978  1.8971  0.4273  1.7530
  109SOL     OW  461   0.546   0.762   0.308  0.0306  0.2853 -0.1356
  109SOL    HW1  462   0.572   0.809   0.229  1.3306  3.0287  1.7605
  109SOL    HW2  463   0.454   0.739   0.292 -0.5993  3.2357 -1.3815
  110SOL     OW  464   0.867   1.356   1.737  0.1880  0.3011  0.1949
  110SOL    HW1  465   0.868   1.446   1.703  1.3397 -0.0213 -0.6670
  110SOL    HW2  466   0.898   1.303   1.664 -0.0288 -0.7534  0.8564
  111SOL     OW  467   3.885   0.594   3.261 -0.3115 -0.2911  0.8583
  111SOL    HW1  468   3.823   0.525   3.234  0.3279 -0.5571  0.0260
  111SOL    HW2  469   3.851   0.673   3.221 -1.1259 -0.0754  1.9298
  112SOL     OW  470   0.727   0.943   1.822 -0.0233 -0.7792  0.8737
  112SOL    HW1  471   0.678   1.018   1.854 -0.9985 -1.3582  0.7550
  112SOL    HW2  472   0.784   0.918   1.895 -0.3851 -0.5139  1.2461
  113SOL     OW  473   3.531   3.570   1.158  0.7046 -0.6432  0.1535
  113SOL    HW1  474   3.600   3.634   1.147 -0.2588  0.8390  2.1937
  113SOL    HW2  475   3.450   3.619   1.145 -0.0902 -1.1880  2.6108
  114SOL     OW  476   2.147   1.209   2.266  0.1009  0.0632  0.1970
  114SOL    HW1  477   2.078   1.146   2.248 -0.5696  0.9476 -0.4360
  114SOL    HW2  478   2.194   1.173   2.341  0.2462 -1.5683 -0.6374
  115SOL     OW  479   2.155   0.107   1.512  0.0591 -0.4535 -0.2928
  115SOL    HW1  480   2.111   0.022   1.520  0.0067 -0.3880  0.1416
  115SOL    HW2  481   2.109   0.150   1.440  1.1482 -1.4289 -1.6184
  116SOL     OW  482   3.356   1.881   1.054  0.2159  0.1028  0.5432
  116SOL    HW1  483   3.335   1.845   0.968 -1.9826  2.0046  0.1953
  116SOL    HW2  484   3.309   1.825   1.115 -0.8306  0.6145  0.2293
  117SOL     OW  485   0.943   3.436   1.283 -0.6692  0.2385  0.1177
  117SOL    HW1  486   0.891   3.403   1.357 -0.5798 -0.5605 -0.1681
  117SOL    HW2  487   1.017   3.482   1.324  0.1104 -1.3419  0.5419
  118SOL     OW  488   2.509   0.993   1.502 -0.1613  0.8525 -0.6097
  118SOL    HW1  489   2.597   1.013   1.534 -0.9601  0.0906  2.3788
  118SOL    HW2  490   2.480   1.074   1.460  1.3689  1.6372 -0.2406
  119SOL     OW  491   1.430   2.192   3.378  0.0848 -0.0439 -0.1518
  119SOL    HW1  492   1.372   2.161   3.309  2.1280 -0.7250 -1.6562
  119SOL    HW2  493   1.380   2.179   3.459 -2.2360  0.4123 -1.4054
  120SOL     OW  494   2.776   1.613   0.251  0.2353 -0.1474 -0.4922
  120SOL    HW1  495   2.812   1.546   0.309  3.1001  1.3960 -0.3399
  120SOL    HW2  496   2.689   1.631   0.287  0.7719 -1.3153  1.5437
  121SOL     OW  497   2.375   0.851   3.857 -0.2127 -0.2140  0.0808
  121SOL    HW1  498   2.384   0.944   3.835  1.0573  0.3042  2.4122
  121SOL    HW2  499   2.429   0.806   3.792 -0.6679  0.6755 -0.9471
  122SOL     OW  500   2.949   0.327   1.311 -0.0819  0.0142  0.0560
  122SOL    HW1  501   2.996   0.348   1.230  1.0098 -1.2045  0.3329
  122SOL    HW2  502   2.880   0.393   1.317 -0.9497 -0.5201 -2.4835
  123SOL     OW  503   3.668   3.854   3.565 -0.3739 -0.1231  0.0070
  123SOL    HW1  504   3.672   3.793   3.492 -1.3022 -1.3093  0.9013
  123SOL    HW2  505   3.710   3.807   3.638  0.4854  1.0093  0.2804
  124SOL     OW  506   0.783   3.067   0.414 -0.2530 -0.3137  0.2244
  124SOL    HW1  507   0.870   3.032   0.430 -0.9427 -1.1628  2.5059
  124SOL    HW2  508   0.776   3.142   0.473 -0.8815  0.0925 -0.3481
  125SOL     OW  509   0.168   0.219   2.102 -0.0437  0.3712 -0.2225
  125SOL    HW1  510   0.163   0.125   2.120 -0.6790  0.2932 -0.8164
  125SOL    HW2  511   0.091   0.239   2.050  0.5491  1.0591 -0.8695
  126SOL     OW  512   3.359   3.607   2.514 -0.4895  0.0458 -0.0698
  126SOL    HW1  513   3.269   3.599   2.481  0.0849 -0.5420 -1.5780
  126SOL    HW2  514   3.403   3.664   2.451 -0.2409  1.8454  1.6556
  127SOL     OW  515   0.227   0.333   1.249  1.1129 -0.4900 -0.2858
  127SOL    HW1  516   0.182   0.349   1.166  1.1087 -0.7324 -0.3309
  127SOL    HW2  517   0.320   0.350   1.229  1.2958 -1.8685 -0.7047
  128SOL     OW  518   3.697   3.777   2.627 -0.0237 -0.4331 -0.3348
  128SOL    HW1  519   3.774   3.761   2.572  0.0020  2.5329 -1.3590
  128SOL    HW2  520   3.654   3.852   2.585 -0.3612  1.6198  3.2930
  129SOL     OW  521   0.586   2.885   1.192 -0.2889  0.0473  0.3198
  129SOL    HW1  522   0.591   2.790   1.201 -2.2906 -0.2775 -1.3796
  129SOL    HW2  523   0.633   2.919   1.269  0.2837 -2.2802  1.0683
  130SOL     OW  524   2.995   1.527   2.499 -0.9754 -0.1307 -0.7429
  130SOL    HW1  525   3.004   1.612   2.456  1.0186  0.4648  0.7119
  130SOL    HW2  526   2.922   1.539   2.560 -0.5298  0.6542 -0.3454
  131SOL     OW  527   1.882   3.601   2.388  0.5567 -0.0665 -0.1486
  131SOL    HW1  528   1.878   3.690   2.425 -0.6760 -0.2355  0.1687
  131SOL    HW2  529   1.974   3.589   2.366  1.3147  0.1970  2.5312
  132SOL     OW  530   0.175   2.873   3.802 -0.3512  0.1565  0.5778
  132SOL    HW1  531   0.167   2.913   3.716  0.8516 -2.5699 -0.9046
  132SOL    HW2  532   0.265   2.842   3.807 -0.7928 -1.0517  2.2198
  133SOL     OW  533   2.403   3.623   0.186 -0.5353 -0.0808 -0.1638
  133SOL    HW1  534   2.445   3.544   0.154  2.3775  1.6316 -0.9481
  133SOL    HW2  535   2.381   3.672   0.106  0.1975  1.0588  0.3142
  134SOL     OW  536   1.198   3.720   3.944 -0.8753 -0.0191  0.6247
  134SOL    HW1  537   1.131   3.736   3.878  0.3347 -1.2461 -0.9832
  134SOL    HW2  538   1.265   3.787   3.927 -0.1459 -0.8846 -0.0291
  135SOL     OW  539   2.922   0.454   2.223 -0.3074 -0.0519  0.2578
  135SOL    HW1  540   2.933   0.421   2.312 -2.6308 -1.8723 -0.0372
  135SOL    HW2  541   2.874   0.536   2.234  0.2574  0.2281  0.7053
  136SOL     OW  542   2.330   0.929   1.919  0.0687  0.4713  0.4599
  136SOL    HW1  543   2.300   1.016   1.891 -1.4174 -0.2384 -0.2370
  136SOL    HW2  544   2.390   0.947   1.992 -1.6757  2.0151  1.5904
  137SOL     OW  545   2.979   2.127   1.348 -0.0874 -0.1291 -0.2330
  137SOL    HW1  546   2.933   2.049   1.379  0.7769  0.0071  1.4973
  137SOL    HW2  547   3.061   2.093   1.311 -0.3079 -0.1330 -0.7321
  138SOL     OW  548   3.890   2.358   2.980  0.5318 -0.4845  0.3519
  138SOL    HW1  549   3.976   2.388   3.007  1.0861 -1.2192 -0.5431
  138SOL    HW2  550   3.849   2.325   3.060  0.2310  1.7564  1.2036
  139SOL     OW  551   2.609   2.686   1.601 -0.0748 -0.4000  0.0321
  139SOL    HW1  552   2.645   2.769   1.634 -1.2828  0.1413  0.0465
  139SOL    HW2  553   2.580   2.640   1.679 -1.6693  0.2793 -0.1049
  140SOL     OW  554   2.967   1.360   2.179  0.4127 -0.2936 -0.4918
  140SOL    HW1  555   2.983   1.307   2.256  0.2326  0.8457  0.3577
  140SOL    HW2  556   3.052   1.400   2.159 -0.0501  1.3929  0.6764
  141SOL     OW  557   2.462   2.084   1.765 -0.1081 -0.1586  0.1553
  141SOL    HW1  558   2.419   1.999   1.753 -0.2309  0.1218 -1.5526
  141SOL    HW2  559   2.554   2.067   1.742  0.9038 -0.7788  3.8497
  142SOL     OW  560   3.214   2.743   3.770  0.2369  0.0014 -0.5543
  142SOL    HW1  561   3.152   2.713   3.836  0.9461  1.4320  0.8218
  142SOL    HW2  562   3.290   2.686   3.781  0.3658  0.2580 -0.1148
  143SOL     OW  563   1.681   1.946   1.405 -0.4321 -0.0281 -0.5307
  143SOL    HW1  564   1.748   1.884   1.432 -1.0154 -1.4833 -2.2462
  143SOL    HW2  565   1.615   1.893   1.360 -2.0935  1.5291 -0.0782
  144SOL     OW  566   2.401   0.084   1.387 -0.0653 -0.3547 -0.6952
  144SOL    HW1  567   2.315   0.093   1.428  0.9442 -0.4847  1.5719
  144SOL    HW2  568   2.414  -0.010   1.378  0.1659 -0.3573 -0.3246
  145SOL     OW  569   2.724   2.275   2.105 -0.7135 -0.0407  0.5782
  145SOL    HW1  570   2.802   2.221   2.117 -0.5116  0.6955  3.2164
  145SOL    HW2  571   2.687   2.285   2.193 -1.2768  3.2391  0.1227
  146SOL     OW  572   3.088   1.495   0.179  0.6242 -0.1547  0.0413
  146SOL    HW1  573   3.105   1.447   0.098 -0.8424 -0.1528 -0.3038
  146SOL    HW2  574   3.059   1.427   0.241  2.8705 -0.3403  0.9804
  147SOL     OW  575   2.589   1.816   3.186  0.2635 -0.2441  0.4616
  147SOL    HW1  576   2.555   1.829   3.098  0.2848  0.8552  0.6075
  147SOL    HW2  577   2.530   1.752   3.225 -1.1335  0.9678  0.4121
  148SOL     OW  578   2.093   1.498   2.160  0.2041  0.0774 -0.0334
  148SOL    HW1  579   2.115   1.408   2.184 -4.3542 -0.5249  3.2754
  148SOL    HW2  580   2.032   1.490   2.087 -0.3051  0.4447  0.3422
  149SOL     OW  581   2.963   0.467   3.572 -0.2730 -0.2466  0.3072
  149SOL    HW1  582   2.942   0.470   3.479 -0.1940  1.0030  0.3186
  149SOL    HW2  583   2.950   0.375   3.596  0.5336 -0.7742 -1.1173
  150SOL     OW  584   0.679   2.915   0.003  0.0706  0.4847  0.0695
  150SOL    HW1  585   0.599   2.943   0.047  0.5262  0.9150  0.6458
  150SOL    HW2  586   0.707   2.992  -0.046  0.7252  0.7130  0.7694
  151SOL     OW  587   0.135   2.796   2.056 -0.2433  0.0136  0.4608
  151SOL    HW1  588   0.071   2.831   2.119  0.4675 -2.0761  2.5207
  151SOL    HW2  589   0.220   2.805   2.100  0.3973 -0.7621 -0.5539
  152SOL     OW  590   2.561   1.915   1.323  0.4426  0.0840  0.3176
  152SOL    HW1  591   2.491   1.849   1.322 -0.4261  0.9581 -1.0432
  152SOL    HW2  592   2.519   1.993   1.358  0.9068  0.4625  0.0338
  153SOL     OW  593   2.644   0.158   1.268  0.1105 -0.3173 -0.6842
  153SOL    HW1  594   2.698   0.092   1.311  1.0289 -0.4186 -1.9504
  153SOL    HW2  595   2.556   0.144   1.304  0.2804 -2.2315 -0.9111
  154SOL     OW  596   1.225   1.530   0.516 -0.1050 -0.0369  0.2626
  154SOL    HW1  597   1.205   1.483   0.435  0.9574  1.6496 -1.0288
  154SOL    HW2  598   1.300   1.483   0.553 -1.3247 -1.5353  0.9580
  155SOL     OW  599   0.325   3.254   2.037  0.1881 -0.5384  0.2854
  155SOL    HW1  600   0.265   3.241   2.111  0.4994  0.9055  0.8177
  155SOL    HW2  601   0.409   3.276   2.078  0.1596  1.1273 -0.4684
  156SOL     OW  602   0.520   3.302   0.521 -0.4483  0.3370  0.5510
  156SOL    HW1  603   0.523   3.213   0.558  1.5124  0.2551  0.2818
  156SOL    HW2  604   0.475   3.291   0.437  0.3187 -0.5166  0.2426
  157SOL     OW  605   2.011   2.249   2.021  0.2534 -0.2839 -0.5237
  157SOL    HW1  606   1.951   2.321   2.040  1.5260  1.3747 -2.3432
  157SOL    HW2  607   2.063   2.240   2.101 -0.5312  0.1949  0.0533
  158SOL     OW  608   1.377   2.860   2.001 -0.4381  0.1016 -0.0113
  158SOL    HW1  609   1.400   2.934   1.946 -0.0313  0.1594  0.2347
  158SOL    HW2  610   1.391   2.891   2.090 -0.2997 -0.2578  0.0935
  159SOL     OW  611   2.006   2.338   1.272  0.0530  0.1249  0.6080
  159SOL    HW1  612   1.926   2.348   1.324  0.1027  1.9171  0.4241
  159SOL    HW2  613   2.074   2.381   1.325  0.8131 -0.9268  0.5290
  160SOL     OW  614   3.586   3.833   3.925  0.6578  0.3141  0.0101
  160SOL    HW1  615   3.534   3.913   3.923  0.0176 -0.0217  1.7609
  160SOL    HW2  616   3.525   3.764   3.900  0.7218  0.1244  0.3830
  161SOL     OW  617   3.044   3.480   0.045 -0.8083 -0.4212 -0.0073
  161SOL    HW1  618   3.092   3.401   0.069 -1.2426 -0.6969 -0.0528
  161SOL    HW2  619   3.023   3.470  -0.047 -0.1259  0.1348 -0.2325
  162SOL     OW  620   3.571   1.785   0.914  0.0422 -0.1468 -0.1535
  162SOL    HW1  621   3.542   1.817   0.999 -0.8418 -1.9915  0.3114
  162SOL    HW2  622   3.553   1.691   0.917  2.9841 -0.8493 -1.1755
  163SOL     OW  623   2.393   2.459   3.344  0.2778  0.0034  0.0485
  163SOL    HW1  624   2.481   2.422   3.345  0.4592  0.4222  0.8313
  163SOL    HW2  625   2.393   2.520   3.270 -0.2177 -1.9434 -1.6456
  164SOL     OW  626   0.844   3.612   1.000  0.2014 -0.0973  0.3022
  164SOL    HW1  627   0.769   3.554   1.006  1.2497 -1.4886  0.3628
  164SOL    HW2  628   0.806   3.700   1.005 -1.3146 -0.7659  1.5486
  165SOL     OW  629   0.896   1.197   1.506 -0.4775  0.0317  0.2732
  165SOL    HW1  630   0.875   1.104   1.515  2.0760 -1.0397 -2.8873
  165SOL    HW2  631   0.853   1.223   1.424  0.2494  1.1311  0.2156
  166SOL     OW  632   1.460   0.770   2.625  0.0271 -0.0067  0.0847
  166SOL    HW1  633   1.376   0.807   2.598 -0.6026 -1.2457  0.2711
  166SOL    HW2  634   1.480   0.812   2.708 -0.7816 -0.2518  0.4074
  167SOL     OW  635   0.682   3.491   2.516 -0.6411  0.0248  0.0467
  167SOL    HW1  636   0.737   3.528   2.448 -1.1231 -1.0311 -0.9565
  167SOL    HW2  637   0.698   3.545   2.593  4.1013 -1.9410  0.7921
  168SOL     OW  638   3.077   3.623   2.427  0.4647 -0.2656 -0.0934
  168SOL    HW1  639   3.056   3.582   2.344 -1.2088  2.2052 -1.0175
  168SOL    HW2  640   3.126   3.702   2.404 -0.2442  0.5975  1.2199
  169SOL     OW  641   0.819   0.256   2.838  0.7399  0.3610  0.8142
  169SOL    HW1  642   0.792   0.346   2.824  2.4507  0.5943 -1.6235
  169SOL    HW2  643   0.908   0.251   2.803  1.2707 -1.9284  2.2472
  170SOL     OW  644   0.979   2.579   3.300  0.1183 -0.2346  0.3244
  170SOL    HW1  645   0.899   2.572   3.248  1.2493 -0.5801 -1.4546
  170SOL    HW2  646   1.047   2.540   3.245  1.3822 -0.6933  2.1195
  171SOL     OW  647   0.502   1.714   2.537 -0.4817  0.3826 -0.6794
  171SOL    HW1  648   0.518   1.622   2.515  0.5087  0.6475 -1.0716
  171SOL    HW2  649   0.423   1.737   2.487 -1.1754 -0.4535 -0.0049
  172SOL     OW  650   3.120   1.752   2.370  0.4098  0.3570 -0.0849
  172SOL    HW1  651   3.205   1.795   2.366  0.5280  0.0166 -2.2666
  172SOL    HW2  652   3.063   1.805   2.315 -0.2426 -0.5788 -0.3455
  173SOL     OW  653   1.466   0.986   2.336  0.4243  0.4339  0.5954
  173SOL    HW1  654   1.504   1.073   2.325  2.0237 -0.4473 -1.5664
  173SOL    HW2  655   1.540   0.930   2.360  0.6914 -1.2745 -3.4597
  174SOL     OW  656   1.353   2.067   2.318 -0.5466  0.2063  0.1423
  174SOL    HW1  657   1.361   2.153   2.278  0.3386 -1.0704 -2.6672
  174SOL    HW2  658   1.405   2.073   2.398 -4.8963  3.8216  3.2372
  175SOL     OW  659   3.377   0.799   0.403 -0.3135  0.4172  0.9093
  175SOL    HW1  660   3.344   0.828   0.487 -0.7049  0.4693  0.7378
  175SOL    HW2  661   3.301   0.801   0.345 -0.1412 -0.0364  0.6635
  176SOL     OW  662   1.242   0.962   3.262 -0.2029  0.3088  0.1454
  176SOL    HW1  663   1.288   1.028   3.315 -0.1117  1.4367 -1.2623
  176SOL    HW2  664   1.175   0.927   3.320  1.0872  0.1181  1.6029
  177SOL     OW  665   3.726   2.640   1.406  0.3655 -0.7693  0.2712
  177SOL    HW1  666   3.814   2.615   1.376 -0.2297 -0.3859 -1.9353
  177SOL    HW2  667   3.673   2.562   1.391 -0.5048  0.2388 -2.2778
  178SOL     OW  668   2.516   1.186   1.283 -0.5063 -1.1579 -0.6067
  178SOL    HW1  669   2.572   1.225   1.216  0.2847  0.0197  0.6715
  178SOL    HW2  670   2.427   1.201   1.252 -0.3516  3.0320  0.3558
  179SOL     OW  671   1.682   2.752   2.201  0.0404  0.1294 -0.5061
  179SOL    HW1  672   1.597   2.712   2.182  1.3488 -2.4504 -1.3709
  179SOL    HW2  673   1.729   2.748   2.118  1.0992  1.3529  0.0002
  180SOL     OW  674   2.166   1.965   3.827 -0.0424 -0.4700 -0.1551
  180SOL    HW1  675   2.096   1.929   3.773 -0.2700 -0.4751  0.1402
  180SOL    HW2  676   2.246   1.927   3.790 -0.2259 -0.7701 -0.2527
  181SOL     OW  677   1.828   2.001   2.875 -0.2413  0.0498 -0.4576
  181SOL    HW1  678   1.808   1.993   2.782 -0.0821 -0.4691 -0.4511
  181SOL    HW2  679   1.836   1.911   2.906 -2.4776  0.1336  0.5441
  182SOL     OW  680   1.599   1.681   3.102 -0.2002  0.0805  0.9923
  182SOL    HW1  681   1.624   1.704   3.191  1.9091 -1.0505  0.7533
  182SOL    HW2  682   1.680   1.651   3.061 -0.9408  1.2412 -1.5546
  183SOL     OW  683   1.840   0.236   1.054 -0.1755  0.3939 -0.2680
  183SOL    HW1  684   1.806   0.293   0.985 -1.6996  0.2755  0.3658
  183SOL    HW2  685   1.769   0.174   1.071 -0.7895  1.8006  2.9896
  184SOL     OW  686   0.569   1.753   3.675  0.0020 -0.1596 -0.0486
  184SOL    HW1  687   0.663   1.758   3.692 -0.0550  1.9827 -0.0541
  184SOL    HW2  688   0.529   1.791   3.754 -0.8302 -0.5807 -0.2641
  185SOL     OW  689   0.470   2.830   3.379  0.4396  0.5248 -0.2136
  185SOL    HW1  690   0.565   2.840   3.372  0.4110  0.8672 -0.1349
  185SOL    HW2  691   0.437   2.919   3.395  0.0921  0.4302 -0.3855
  186SOL     OW  692   2.506   3.018   2.606  0.1525 -0.3930  0.2228
  186SOL    HW1  693   2.534   3.110   2.604  1.3976 -0.7400  0.7447
  186SOL    HW2  694   2.549   2.982   2.683  1.1260 -1.8344 -0.9328
  187SOL     OW  695   3.030   2.379   3.618 -0.2519 -0.5009 -0.6489
  187SOL    HW1  696   3.063   2.437   3.550  0.8211  1.6328  1.5331
  187SOL    HW2  697   2.947   2.419   3.646  0.8097  0.4895  1.3092
  188SOL     OW  698   3.575   1.838   2.093  0.0681  0.1996 -0.2147
  188SOL    HW1  699   3.662   1.826   2.131  0.2645  1.6194 -0.1696
  188SOL    HW2  700   3.518   1.781   2.145  1.0262 -1.1101 -0.5470
  189SOL     OW  701   2.267   0.857   1.551  0.1307 -0.4508  0.0251
  189SOL    HW1  702   2.346   0.912   1.548 -0.6396  0.6656 -0.5893
  189SOL    HW2  703   2.284   0.788   1.486 -0.5141  1.4296 -2.2728
  190SOL     OW  704   0.529   0.489   3.578 -0.3719 -0.0937 -0.7712
  190SOL    HW1  705   0.475   0.568   3.574 -0.6170 -0.1844  0.4137
  190SOL    HW2  706   0.490   0.430   3.514 -1.2928  0.0835 -0.3956
  191SOL     OW  707   2.951   1.404   3.736 -0.0712  0.4608  0.0849
  191SOL    HW1  708   2.944   1.396   3.640 -2.2732 -0.9646  0.2643
  191SOL    HW2  709   2.860   1.405   3.765  0.5421  2.1706  2.1261
  192SOL     OW  710   3.754   0.856   3.716 -0.7973 -0.7550 -0.0397
  192SOL    HW1  711   3.736   0.790   3.648 -1.1018 -0.0136 -0.6942
  192SOL    HW2  712   3.720   0.938   3.679  1.6378  0.2498 -0.2407
  193SOL     OW  713   0.544   2.228   2.431  0.1954 -0.1562  0.6600
  193SOL    HW1  714   0.484   2.185   2.492 -0.0414 -0.1239  0.4506
  193SOL    HW2  715   0.522   2.321   2.438  0.8995 -0.0308  1.3257
  194SOL     OW  716   0.826   2.229   1.035  0.3349  0.0392 -0.3400
  194SOL    HW1  717   0.762   2.163   1.060  2.0865 -1.6851 -0.1599
  194SOL    HW2  718   0.776   2.292   0.982 -1.9405  0.0302  1.6222
  195SOL     OW  719   1.385   0.485   1.846  0.0607 -0.4371  0.6782
  195SOL    HW1  720   1.336   0.533   1.779  1.3038  0.7496  0.5648
  195SOL    HW2  721   1.476   0.495   1.819  0.4555 -1.4774  1.5901
  196SOL     OW  722   2.703   0.631   2.912 -0.2334  0.1316 -0.2057
  196SOL    HW1  723   2.636   0.562   2.920 -0.6032  0.0435 -2.8797
  196SOL    HW2  724   2.786   0.584   2.916 -0.2701  0.1796  2.6449
  197SOL     OW  725   0.896   0.222   0.981 -0.2983 -0.6756  0.0734
  197SOL    HW1  726   0.806   0.252   0.990 -0.2808 -0.6668  0.2283
  197SOL    HW2  727   0.941   0.295   0.938  0.3457  0.7030  2.8298
  198SOL     OW  728   2.371   3.769   1.054  0.4518 -0.6997 -0.1571
  198SOL    HW1  729   2.427   3.785   0.978  1.6161 -0.4748  0.7198
  198SOL    HW2  730   2.369   3.673   1.062  1.6978 -0.6910  0.4893
  199SOL     OW  731   2.773   3.420   0.225 -0.6485 -0.8249 -0.0201
  199SOL    HW1  732   2.852   3.374   0.200  2.0943  3.1224  0.4339
  199SOL    HW2  733   2.779   3.429   0.320 -1.9404 -0.9268  0.0883
  200SOL     OW  734   2.673   1.260   3.985  0.5074 -0.3165 -0.1830
  200SOL    HW1  735   2.731   1.213   3.926  0.0782 -0.0274 -0.8495
  200SOL    HW2  736   2.645   1.337   3.935  0.1975 -0.0281  0.4241
  201SOL     OW  737   0.176   1.801   0.939 -0.1397 -0.6622  0.4949
  201SOL    HW1  738   0.150   1.892   0.927 -0.6766 -0.7245  1.1119
  201SOL    HW2  739   0.097   1.751   0.918  0.4294 -1.0517 -0.8005
  202SOL     OW  740   3.155   1.069   1.940 -0.2915 -0.5609 -0.1538
  202SOL    HW1  741   3.218   1.038   1.875  1.0692  2.0650 -0.2477
  202SOL    HW2  742   3.209   1.111   2.007 -1.6765 -2.7544  2.5238
  203SOL     OW  743   3.511   1.307   0.897 -0.1085  0.2505  0.5908
  203SOL    HW1  744   3.468   1.255   0.829 -0.0283  1.8201 -0.7187
  203SOL    HW2  745   3.445   1.372   0.922  0.6510  1.1332  0.3343
  204SOL     OW  746   2.003   2.413   3.705 -0.2382  0.2593  0.3193
  204SOL    HW1  747   1.983   2.467   3.781  0.9543  1.9213 -0.5039
  204SOL    HW2  748   1.991   2.470   3.630  1.3513 -0.5062 -0.5708
  205SOL     OW  749   1.931   2.673   3.000  0.6576  0.4975 -0.4052
  205SOL    HW1  750   1.861   2.735   3.023  0.5967  0.2406  0.0972
  205SOL    HW2  751   1.901   2.634   2.918 -0.3217 -0.4139  0.3638
  206SOL     OW  752   1.828   0.904   2.887  0.2700  0.4998  0.2451
  206SOL    HW1  753   1.889   0.955   2.940  1.5325  0.1378 -0.7967
  206SOL    HW2  754   1.873   0.893   2.803 -1.0436 -0.1830 -0.4003
  207SOL     OW  755   1.844   3.034   2.956 -0.3899  0.2375  0.1199
  207SOL    HW1  756   1.865   3.017   2.864  0.3740 -1.1098  0.5149
  207SOL    HW2  757   1.859   3.127   2.968  1.9338  0.0080 -0.5444
  208SOL     OW  758   2.738   0.267   2.059  0.0096  0.0719  0.1104
  208SOL    HW1  759   2.674   0.272   1.988  1.7072 -1.7444 -1.6574
  208SOL    HW2  760   2.715   0.340   2.117 -2.3571  0.7185 -1.5144
  209SOL     OW  761   1.420   3.923   3.852 -0.2387 -0.6911  0.0535
  209SOL    HW1  762   1.456   3.935   3.940 -0.4649  0.2467  0.0323
  209SOL    HW2  763   1.487   3.958   3.794 -0.7025  0.0353 -0.0528
  210SOL     OW  764   0.218   1.223   2.195 -0.1579  0.3900  0.7467
  210SOL    HW1  765   0.273   1.178   2.131  1.0238  0.8667  1.3959
  210SOL    HW2  766   0.203   1.310   2.157 -0.5728  0.2265  0.5235
  211SOL     OW  767   2.831   1.101   2.586 -0.7950  0.1889 -0.5071
  211SOL    HW1  768   2.840   1.162   2.513  2.6289 -0.1560 -0.5237
  211SOL    HW2  769   2.805   1.156   2.660  1.1162  1.5482 -0.7821
  212SOL     OW  770   2.950   3.085   3.870 -0.0696 -1.0102 -0.4195
  212SOL    HW1  771   2.890   3.012   3.856 -2.3284  0.4191  1.2632
  212SOL    HW2  772   2.894   3.160   3.890  2.1066  1.3688 -2.4299
  213SOL     OW  773   3.480   0.383   1.779  0.8241  0.4589  0.5247
  213SOL    HW1  774   3.523   0.297   1.782 -0.2902 -0.1210  0.2887
  213SOL    HW2  775   3.428   0.382   1.698  0.7416  1.3304  0.5540
  214SOL     OW  776   0.327   1.205   3.568 -0.0459 -0.7781 -0.4913
  214SOL    HW1  777   0.408   1.175   3.610  0.0103 -1.7816 -1.2930
  214SOL    HW2  778   0.351   1.217   3.476 -0.5099  0.1114 -0.5071
  215SOL     OW  779   2.163   0.200   2.574 -0.3071 -0.6921  0.2195
  215SOL    HW1  780   2.132   0.109   2.570 -0.4903 -0.6458  0.5842
  215SOL    HW2  781   2.099   0.250   2.523  1.0146 -1.0842 -1.9667
  216SOL     OW  782   3.888   0.613   0.868  0.3800  0.9288 -0.4054
  216SOL    HW1  783   3.924   0.596   0.781  0.1191  3.4308 -1.0608
  216SOL    HW2  784   3.799   0.645   0.852 -0.4914 -0.6329  0.9356
  217SOL     OW  785   3.603   3.302   3.556  0.2811 -0.6468 -0.2367
  217SOL    HW1  786   3.530   3.243   3.575 -0.4893  0.7463  1.4606
  217SOL    HW2  787   3.660   3.296   3.632 -0.5846  1.8218  0.7205
  218SOL     OW  788   2.577   0.807   0.874  0.0870 -0.7461 -0.1467
  218SOL    HW1  789   2.637   0.742   0.910  1.9012  0.4831 -0.7824
  218SOL    HW2  790   2.550   0.771   0.789 -0.7077 -1.6415  0.4643
  219SOL     OW  791   1.466   3.630   2.872 -0.3441  0.1777 -0.0452
  219SOL    HW1  792   1.538   3.598   2.927  1.0394  2.0322 -0.6831
  219SOL    HW2  793   1.508   3.687   2.808 -2.1152 -0.5717 -1.9898
  220SOL     OW  794   3.275   0.648   1.284 -0.4768  0.1036 -0.3426
  220SOL    HW1  795   3.345   0.630   1.346 -0.3102 -1.2324 -0.8740
  220SOL    HW2  796   3.197   0.661   1.338 -0.2539 -0.6719  0.1817
  221SOL     OW  797   3.644   3.143   0.584 -0.0681 -0.0776  0.6219
  221SOL    HW1  798   3.690   3.227   0.585 -0.3719  0.1143 -0.3401
  221SOL    HW2  799   3.552   3.166   0.572 -0.3752 -0.4797  2.1063
  222SOL     OW  800   0.674   2.454   1.360  0.2890  0.1231 -0.3670
  222SOL    HW1  801   0.580   2.440   1.345  0.3793  0.4950 -1.3244
  222SOL    HW2  802   0.678   2.540   1.403  0.1366 -0.2828  0.4780
  223SOL     OW  803   3.721   0.119   3.021 -0.0132 -0.4249 -0.1104
  223SOL    HW1  804   3.750   0.123   2.930 -2.0924  2.1519 -0.7731
  223SOL    HW2  805   3.699   0.210   3.043 -2.2129 -1.3740  2.0374
  224SOL     OW  806   0.587   1.987   3.207 -0.2841 -0.3248  0.8129
  224SOL    HW1  807   0.554   1.965   3.120 -0.3991 -0.0759  0.7942
  224SOL    HW2  808   0.612   1.902   3.244 -0.0676 -0.4131  0.4731
  225SOL     OW  809   2.497   3.177   0.733  0.3318 -0.0946 -0.4924
  225SOL    HW1  810   2.527   3.266   0.714 -0.0527  0.3056  0.6906
  225SOL    HW2  811   2.406   3.176   0.703  0.0620  0.2020  0.2791
  226SOL     OW  812   0.482   1.169   2.951 -0.4185  0.5297 -0.5879
  226SOL    HW1  813   0.466   1.096   2.891  1.3055 -0.0990 -0.3360
  226SOL    HW2  814   0.438   1.144   3.032  0.2173 -0.3057 -0.4790
  227SOL     OW  815   3.732   1.386   3.003 -0.2032  0.3310 -0.0016
  227SOL    HW1  816   3.692   1.471   2.987 -0.8182 -0.3878 -2.7829
  227SOL    HW2  817   3.665   1.323   2.978 -0.0006 -1.0595  2.6027
  228SOL     OW  818   0.589   0.261   1.425 -0.5723  0.3103  0.2813
  228SOL    HW1  819   0.566   0.324   1.357  0.2479  1.8192  1.3517
  228SOL    HW2  820   0.681   0.278   1.444 -0.7212 -0.2446  1.6040
  229SOL     OW  821   0.882   3.701   0.051 -0.2592 -0.1506 -0.0369
  229SOL    HW1  822   0.871   3.786   0.093  0.2896 -0.4462  0.7394
  229SOL    HW2  823   0.964   3.710   0.001  0.1550 -0.4163  0.5777
  230SOL     OW  824   2.284   2.615   0.953  0.7215 -0.0632  0.0675
  230SOL    HW1  825   2.258   2.557   0.882  4.4064 -0.8552 -0.8252
  230SOL    HW2  826   2.277   2.562   1.032  1.0425 -0.7133 -0.3365
  231SOL     OW  827   1.594   3.608   0.676  0.0857 -0.4358  0.0024
  231SOL    HW1  828   1.638   3.650   0.602  0.1696 -2.3457 -1.1031
  231SOL    HW2  829   1.661   3.602   0.744  0.1635  0.8667  0.0510
  232SOL     OW  830   0.378   0.185   0.830  0.2202  0.4422  0.2134
  232SOL    HW1  831   0.348   0.108   0.782  0.0195  0.1543  0.7828
  232SOL    HW2  832   0.309   0.250   0.816  0.6602  0.7169 -0.7306
  233SOL     OW  833   0.907   0.585   0.587 -0.2894  0.0937 -0.1036
  233SOL    HW1  834   0.947   0.672   0.580  1.4847 -0.7137 -0.5951
  233SOL    HW2  835   0.973   0.532   0.632 -2.4684 -0.3737  2.7568
  234SOL     OW  836   2.579   1.056   0.429 -0.3225  0.2362  0.4119
  234SOL    HW1  837   2.508   0.992   0.434  0.4788 -0.7116  0.0880
  234SOL    HW2  838   2.552   1.116   0.359 -1.0424  0.2035  0.6520
  235SOL     OW  839   3.121   0.129   1.410  0.5091  0.8832  0.3015
  235SOL    HW1  840   3.197   0.157   1.358 -0.2889 -0.3791 -1.6307
  235SOL    HW2  841   3.049   0.184   1.379 -0.5715 -1.5945 -1.9622
  236SOL     OW  842   0.095   2.952   2.919  0.0125  0.2773 -0.0094
  236SOL    HW1  843   0.069   3.003   2.843 -0.4981  1.3151  0.8483
  236SOL    HW2  844   0.190   2.944   2.911 -0.2291 -1.9964 -2.1937
  237SOL     OW  845   3.317   2.165   1.921 -0.4358  0.3418 -0.2606
  237SOL    HW1  846   3.278   2.150   2.007  1.7778 -0.4062  0.6824
  237SOL    HW2  847   3.273   2.243   1.888 -1.3280  0.6556  1.5449
  238SOL     OW  848   3.743   1.553   2.699 -0.0062  0.0732 -0.2452
  238SOL    HW1  849   3.753   1.579   2.790  0.2960  0.3094 -0.3453
  238SOL    HW2  850   3.824   1.581   2.656 -0.1475 -0.0306 -0.5876
  239SOL     OW  851   1.367   2.932   3.611 -0.9645  0.0609  0.5235
  239SOL    HW1  852   1.447   2.900   3.651  0.4160  0.6767 -1.5961
  239SOL    HW2  853   1.384   3.025   3.594 -0.9783 -0.4183 -2.5127
  240SOL     OW  854   3.002   3.925   1.576  0.0697 -0.1460  0.5269
  240SOL    HW1  855   3.038   3.951   1.661  0.5199 -0.7800  0.5326
  240SOL    HW2  856   3.061   3.965   1.512 -1.9238  2.9105  0.3800
  241SOL     OW  857   0.136   3.443   1.854  0.9048  0.7087 -0.1641
  241SOL    HW1  858   0.061   3.392   1.885  1.5093  0.2075  0.5112
  241SOL    HW2  859   0.163   3.494   1.930  2.2569 -0.3520  0.1240
  242SOL     OW  860   2.040   1.037   3.785  0.2493  0.0983 -0.0630
  242SOL    HW1  861   1.950   1.006   3.778  0.7041 -1.6100  0.9919
  242SOL    HW2  862   2.081   1.009   3.703 -0.0205  0.3903 -0.3036
  243SOL     OW  863   1.612   3.699   0.047 -0.6782  0.3608 -0.1533
  243SOL    HW1  864   1.581   3.610   0.064  0.4093 -0.1876 -0.8868
  243SOL    HW2  865   1.617   3.703  -0.049  0.9571  0.6006 -0.0752
  244SOL     OW  866   0.810   3.015   2.328 -0.3300  0.2904  0.6928
  244SOL    HW1  867   0.842   3.083   2.268 -2.4719  0.0257 -0.8698
  244SOL    HW2  868   0.830   2.933   2.284 -0.6549  0.0283  1.0298
  245SOL     OW  869   0.934   0.630   1.467 -0.0905  0.6581 -0.1864
  245SOL    HW1  870   1.021   0.591   1.473 -0.2190  0.5720  3.5740
  245SOL    HW2  871   0.946   0.720   1.495 -1.2537  0.4208  1.2151
  246SOL     OW  872   2.051   0.603   0.254  0.3729  0.1119  0.0551
  246SOL    HW1  873   2.120   0.552   0.295  1.1812 -0.1371 -1.5317
  246SOL    HW2  874   2.095   0.679   0.217 -0.8460  2.1923  2.5672
  247SOL     OW  875   3.059   3.472   3.425  0.0366  0.1846 -0.0868
  247SOL    HW1  876   3.056   3.503   3.335 -1.3470 -1.0550 -0.4999
  247SOL    HW2  877   2.973   3.492   3.462  1.1080  2.1902  1.5430
  248SOL     OW  878   1.299   2.470   1.861  0.3918 -0.2849 -0.1430
  248SOL    HW1  879   1.217   2.509   1.892  0.3189 -2.0384  2.0861
  248SOL    HW2  880   1.302   2.494   1.768 -1.9573  0.9743  0.0113
  249SOL     OW  881   2.289   2.697   2.295  0.4847  0.1103  0.5777
  249SOL    HW1  882   2.346   2.772   2.314  1.6447 -0.2760 -1.1765
  249SOL    HW2  883   2.222   2.731   2.236  0.2797  0.0256  0.7583
  250SOL     OW  884   3.522   2.105   2.211  0.0898 -0.1901  0.1234
  250SOL    HW1  885   3.607   2.141   2.187  0.0784 -0.5588 -0.4692
  250SOL    HW2  886   3.512   2.026   2.158 -0.2015 -0.6894  0.8936
  251SOL     OW  887   2.222   3.175   0.635 -0.3562 -0.0073 -0.2126
  251SOL    HW1  888   2.159   3.217   0.693  0.0908  0.0416  0.2433
  251SOL    HW2  889   2.183   3.090   0.615 -0.2462 -0.2687  0.6402
  252SOL     OW  890   2.249   1.387   2.897 -0.5267 -0.1665 -0.1166
  252SOL    HW1  891   2.216   1.385   2.987 -0.2760 -1.1709 -0.0389
  252SOL    HW2  892   2.272   1.479   2.882  1.4465 -0.2919  1.6086
  253SOL     OW  893   3.043   3.740   0.130 -0.3675  0.9444 -0.3676
  253SOL    HW1  894   3.089   3.718   0.210 -0.0018  1.2613 -0.4846
  253SOL    HW2  895   3.003   3.658   0.100 -0.4352  0.8117  0.0895
  254SOL     OW  896   0.760   0.473   3.163  0.6898  0.5286  0.1809
  254SOL    HW1  897   0.746   0.547   3.221 -1.0334  0.0269  0.4652
  254SOL    HW2  898   0.767   0.512   3.076 -0.7506  1.0215  0.2566
  255SOL     OW  899   1.711   3.908   2.818 -0.2942 -0.6177  0.3355
  255SOL    HW1  900   1.793   3.933   2.862 -1.2395 -0.5729  2.1735
  255SOL    HW2  901   1.647   3.972   2.848 -0.7956  0.0886 -2.0386
  256SOL     OW  902   1.499   1.985   1.794 -0.3661 -0.5172  0.1970
  256SOL    HW1  903   1.488   1.934   1.714  1.2620 -2.3146  1.0600
  256SOL    HW2  904   1.433   2.054   1.787  1.0845  0.7316 -3.6950
  257SOL     OW  905   0.289   2.647   0.337  0.4576 -0.2784  0.0032
  257SOL    HW1  906   0.352   2.670   0.405 -1.5565  1.5251  1.3884
  257SOL    HW2  907   0.233   2.581   0.377 -0.2753  0.2285 -0.1591
  258SOL     OW  908   3.334   2.416   2.113 -0.9118 -0.2360  0.1762
  258SOL    HW1  909   3.310   2.338   2.163  2.3503 -0.7647  1.1313
  258SOL    HW2  910   3.407   2.454   2.162  0.7331  0.7257 -2.8039
  259SOL     OW  911   3.509   1.803   2.774 -0.0462  0.5747  0.1209
  259SOL    HW1  912   3.504   1.895   2.801 -1.2777  0.2088  1.2911
  259SOL    HW2  913   3.426   1.788   2.728 -0.1709 -0.1225  0.5634
  260SOL     OW  914   3.884   2.903   1.194  0.5989 -0.1681  0.3682
  260SOL    HW1  915   3.818   2.948   1.141  1.7895  0.5781 -0.5174
  260SOL    HW2  916   3.928   2.844   1.133 -0.1740 -1.7701  1.2694
  261SOL     OW  917   1.404   2.571   3.587  0.1832 -0.6143  1.0307
  261SOL    HW1  918   1.362   2.604   3.667 -1.5002  0.8468 -0.3831
  261SOL    HW2  919   1.497   2.568   3.609 -0.2378 -0.4086  3.0928
  262SOL     OW  920   1.745   3.728   3.001 -0.3514  0.0897  1.3333
  262SOL    HW1  921   1.722   3.797   2.940  0.0465 -0.2999  0.7301
  262SOL    HW2  922   1.703   3.753   3.083 -1.1073  0.4864  0.8327
  263SOL     OW  923   0.347   0.864   2.285 -0.5288  0.1857  0.3328
  263SOL    HW1  924   0.294   0.869   2.205  0.4844 -0.7243 -0.4245
  263SOL    HW2  925   0.370   0.955   2.304 -2.3266  0.5993  0.6786
  264SOL     OW  926   1.100   3.444   0.373  0.3560 -0.1528 -0.0870
  264SOL    HW1  927   1.149   3.408   0.446  0.1471 -1.1744 -0.4333
  264SOL    HW2  928   1.153   3.518   0.343  0.5309  0.1720  0.9697
  265SOL     OW  929   2.105   3.107   0.326 -0.3741  0.1441  0.2312
  265SOL    HW1  930   2.058   3.182   0.364 -1.9040 -1.1740  1.0600
  265SOL    HW2  931   2.036   3.050   0.294  0.7545 -1.0469 -0.1388
  266SOL     OW  932   1.865   2.637   1.985 -0.0162  0.5029  0.3177
  266SOL    HW1  933   1.803   2.705   1.961 -1.7807 -0.9513  0.4844
  266SOL    HW2  934   1.821   2.555   1.960  1.7948 -0.5977  0.5687
  267SOL     OW  935   3.162   3.045   1.347  0.6600 -0.0487  0.0074
  267SOL    HW1  936   3.245   3.003   1.369  0.8779  1.1111  1.5390
  267SOL    HW2  937   3.180   3.089   1.263  1.5786  0.1147  0.2720
  268SOL     OW  938   0.287   1.582   1.610 -0.3744 -0.1102  0.2358
  268SOL    HW1  939   0.302   1.549   1.521 -0.9113  0.3089 -0.0132
  268SOL    HW2  940   0.303   1.506   1.667 -1.0675 -0.6660 -0.2929
  269SOL     OW  941   0.156   3.361   2.461  0.0793 -0.6587 -0.5203
  269SOL    HW1  942   0.192   3.447   2.478 -1.2422  0.3645 -2.4643
  269SOL    HW2  943   0.062   3.376   2.447 -0.8348 -2.8877  2.2400
  270SOL     OW  944   2.033   2.554   3.492 -0.1204 -0.4379  0.2005
  270SOL    HW1  945   2.044   2.622   3.425  1.4957  1.4095  2.2037
  270SOL    HW2  946   2.049   2.472   3.445 -0.9443  0.5958 -2.0503
  271SOL     OW  947   1.440   0.539   1.508  0.4645  0.3068 -0.5151
  271SOL    HW1  948   1.476   0.603   1.571  1.0354  0.4562 -0.9789
  271SOL    HW2  949   1.455   0.580   1.422  1.3888 -0.6994 -0.8573
  272SOL     OW  950   0.782   3.529   3.067 -0.5203 -0.0977  0.0330
  272SOL    HW1  951   0.742   3.469   3.004  0.1584 -0.7425  0.1984
  272SOL    HW2  952   0.789   3.612   3.020  1.8250 -1.0635 -1.5059
  273SOL     OW  953   3.611   0.633   0.392  0.0714  0.1139  0.4951
  273SOL    HW1  954   3.542   0.698   0.383 -0.6149 -0.2630  2.5752
  273SOL    HW2  955   3.565   0.550   0.404  0.9311 -0.6582 -1.1851
  274SOL     OW  956   1.188   3.174   0.286 -0.1545 -0.0537 -0.3517
  274SOL    HW1  957   1.152   3.249   0.238 -0.0417  0.4928  0.4035
  274SOL    HW2  958   1.120   3.151   0.349 -0.7699 -1.4760 -1.4755
  275SOL     OW  959   3.735   0.374   2.651 -0.1512 -0.0765 -0.1726
  275SOL    HW1  960   3.707   0.466   2.655  0.0661 -0.0328  0.5187
  275SOL    HW2  961   3.783   0.368   2.568 -1.2029  0.1258 -0.8084
  276SOL     OW  962   1.295   0.070   2.708  0.1152 -0.3374 -0.1480
  276SOL    HW1  963   1.315   0.007   2.639 -0.1904  0.4636 -0.9966
  276SOL    HW2  964   1.353   0.144   2.689  0.4717 -0.3558  0.8344
  277SOL     OW  965   3.904   1.440   1.334 -0.0029 -0.4671  0.6876
  277SOL    HW1  966   3.929   1.475   1.419 -0.3325 -1.5884  1.2603
  277SOL    HW2  967   3.976   1.381   1.310  0.9140  1.0671 -0.6127
  278SOL     OW  968   0.263   2.775   2.723  0.0845 -0.0974 -0.1356
  278SOL    HW1  969   0.234   2.754   2.812 -1.7951  0.8797 -0.4651
  278SOL    HW2  970   0.354   2.803   2.733 -0.0448 -0.1614  1.4525
  279SOL     OW  971   3.066   2.292   0.855 -0.8094  0.0216 -0.4302
  279SOL    HW1  972   3.010   2.368   0.842  0.8992  1.5035  0.3832
  279SOL    HW2  973   3.070   2.281   0.951  2.2875  1.6383 -0.2605
  280SOL     OW  974   0.148   0.994   0.386  0.3990  0.0375 -0.8664
  280SOL    HW1  975   0.091   0.928   0.349 -1.1773  0.9963 -0.2342
  280SOL    HW2  976   0.113   1.077   0.353  0.0926  0.7882  1.2110
  281SOL     OW  977   0.521   0.245   0.005  0.3472  1.1593 -0.4251
  281SOL    HW1  978   0.601   0.223   0.052  0.9081 -0.6144 -2.1011
  281SOL    HW2  979   0.469   0.165   0.007 -0.8555  1.9060 -0.4547
  282SOL     OW  980   0.967   3.256   1.870  0.3558 -0.3625  0.3691
  282SOL    HW1  981   1.035   3.318   1.896  1.0235  0.1180 -2.2976
  282SOL    HW2  982   1.009   3.171   1.873  0.5563 -0.2614  0.4101
  283SOL     OW  983   1.676   0.913  -0.005 -0.1130  0.1069  0.4269
  283SOL    HW1  984   1.642   0.999   0.022  1.8271  0.8228  0.7730
  283SOL    HW2  985   1.729   0.884   0.068  1.3384 -0.1638 -0.6817
  284SOL     OW  986   2.656   3.940   0.082 -0.1449  0.1668 -0.0972
  284SOL    HW1  987   2.638   3.877   0.153  1.5062 -1.4419 -1.0175
  284SOL    HW2  988   2.696   4.015   0.126  0.1533 -0.4810  0.7682
  285SOL     OW  989   1.485   2.051   0.209 -0.4634 -0.4630  0.1328
  285SOL    HW1  990   1.575   2.081   0.195 -0.7545  0.5783  0.3964
  285SOL    HW2  991   1.450   2.112   0.274 -1.8153  0.0819 -1.0562
  286SOL     OW  992   1.923   2.441   0.281  0.2010  0.1648  0.1305
  286SOL    HW1  993   1.896   2.394   0.360  1.2739 -0.6367  0.0316
  286SOL    HW2  994   1.895   2.531   0.297 -3.7327 -0.7217 -0.4875
  287SOL     OW  995   0.890   0.863   2.061 -0.5794 -0.1112 -0.3565
  287SOL    HW1  996   0.865   0.772   2.075  0.4740 -0.4015 -0.2450
  287SOL    HW2  997   0.982   0.859   2.035 -0.3050  0.9626  0.3554
  288SOL     OW  998   3.227   3.858   2.368  0.1586  0.0087 -0.3418
  288SOL    HW1  999   3.260   3.915   2.437 -0.1509 -0.0470 -0.1464
  288SOL    HW2 1000   3.291   3.867   2.297  0.3814  0.2030 -0.1176
  289SOL     OW 1001   2.508   3.496   1.284 -0.3735 -0.1773 -0.5083
  289SOL    HW1 1002   2.519   3.435   1.212  1.5533 -0.4270 -0.0864
  289SOL    HW2 1003   2.581   3.475   1.344 -1.6522  0.2860  1.3006
  290SOL     OW 1004   2.188   3.491   0.964 -0.9914 -0.3055  0.1046
  290SOL    HW1 1005   2.239   3.433   1.020  0.0009  0.7698  0.3300
  290SOL    HW2 1006   2.120   3.527   1.021  0.5945  1.5401  0.9473
  291SOL     OW 1007   2.565   1.644   2.749  0.0753 -0.1034  0.0045
  291SOL    HW1 1008   2.473   1.622   2.745  0.0143 -0.1473  1.2494
  291SOL    HW2 1009   2.568   1.738   2.729 -0.1440 -0.2646 -0.8116
  292SOL     OW 1010   1.873   0.836   2.224  0.7874 -0.3240 -0.5409
  292SOL    HW1 1011   1.842   0.771   2.160 -0.8155  0.9769 -1.1762
  292SOL    HW2 1012   1.872   0.790   2.308 -2.4301 -0.6034 -0.6128
  293SOL     OW 1013   0.307   0.943   1.200  0.2560 -0.6537  0.2797
  293SOL    HW1 1014   0.264   0.899   1.127  0.2890 -1.0685  0.5088
  293SOL    HW2 1015   0.326   1.030   1.166  1.5949 -1.2994 -0.7099
  294SOL     OW 1016   3.126   1.568   3.290  0.5897  0.1337  0.4192
  294SOL    HW1 1017   3.209   1.558   3.243 -0.3605 -2.0661 -0.9179
  294SOL    HW2 1018   3.076   1.630   3.236  0.6260 -0.0754  0.1415
  295SOL     OW 1019   0.287   3.260   1.012 -0.3292 -0.5136 -0.9813
  295SOL    HW1 1020   0.245   3.193   1.067 -0.6439  0.2126 -0.3218
  295SOL    HW2 1021   0.318   3.326   1.074  2.5766 -1.3871 -1.3283
  296SOL     OW 1022   1.363   3.815   3.161  0.4970 -0.3850 -0.1087
  296SOL    HW1 1023   1.389   3.808   3.069 -1.9071 -1.7454 -0.7729
  296SOL    HW2 1024   1.445   3.807   3.210  1.6356 -1.5501 -2.0975
  297SOL     OW 1025   1.761   0.781   1.417 -0.0477 -0.0594 -0.4575
  297SOL    HW1 1026   1.687   0.757   1.361  1.6921 -0.3826 -2.7890
  297SOL    HW2 1027   1.804   0.852   1.370  0.6446  0.7344  1.3017
  298SOL     OW 1028   2.906   2.996   2.704  0.0493 -0.0944  0.0960
  298SOL    HW1 1029   2.935   2.985   2.613 -0.4738  0.8267 -0.1885
  298SOL    HW2 1030   2.879   3.087   2.710 -0.3133 -0.2575  1.0717
  299SOL     OW 1031   2.392   0.341   0.749 -0.0481 -0.3122 -0.4597
  299SOL    HW1 1032   2.374   0.433   0.730 -1.0181 -0.3390  0.2182
  299SOL    HW2 1033   2.393   0.298   0.663 -4.1121 -0.4180 -0.6855
  300SOL     OW 1034   3.522   2.144   3.512  0.4711  0.0608 -0.1842
  300SOL    HW1 1035   3.544   2.051   3.511 -1.0188 -0.4304 -3.7382
  300SOL    HW2 1036   3.427   2.146   3.516  0.4927  1.4631 -0.0079
  301SOL     OW 1037   3.157   0.410   0.866  0.0194  0.1605 -0.1313
  301SOL    HW1 1038   3.149   0.431   0.959  1.9797 -1.9881  0.6120
  301SOL    HW2 1039   3.251   0.400   0.851 -0.3104 -0.3422 -2.1536
  302SOL     OW 1040   1.360   1.716   3.366  0.2274  0.0659  0.0446
  302SOL    HW1 1041   1.285   1.755   3.412 -0.7226 -0.4470 -1.0306
  302SOL    HW2 1042   1.348   1.622   3.376  0.0561 -0.0518 -1.1485
  303SOL     OW 1043   3.322   1.466   1.048 -0.2041 -0.3088 -0.1991
  303SOL    HW1 1044   3.283   1.553   1.060 -1.2679 -0.9695  1.6135
  303SOL    HW2 1045   3.276   1.429   0.973 -0.7901  0.1480 -0.0713
  304SOL     OW 1046   3.841   1.419   3.965  0.1104 -0.0206 -0.7482
  304SOL    HW1 1047   3.755   1.420   4.006 -0.5971 -1.7310 -2.0884
  304SOL    HW2 1048   3.834   1.480   3.892 -0.4131 -1.1528 -1.6630
  305SOL     OW 1049   1.262   1.891   1.111 -0.5312  0.4807  0.1697
  305SOL    HW1 1050   1.289   1.869   1.201 -0.2586  0.8101  0.1694
  305SOL    HW2 1051   1.219   1.976   1.119  0.6410  1.1326 -0.1958
  306SOL     OW 1052   0.662   3.330   3.630  0.1554 -0.7062 -0.0729
  306SOL    HW1 1053   0.676   3.412   3.677  0.7575 -1.2542  0.7531
  306SOL    HW2 1054   0.655   3.355   3.538 -2.2353  0.5491  0.3568
  307SOL     OW 1055   3.829   1.837   2.159  0.5089  0.3919 -0.1023
  307SOL    HW1 1056   3.871   1.822   2.244 -0.5259  1.3233  0.6072
  307SOL    HW2 1057   3.893   1.807   2.095  1.2444 -0.5018  1.0079
  308SOL     OW 1058   1.921   2.163   3.481  0.4288 -0.0429  0.6804
  308SOL    HW1 1059   1.928   2.081   3.432 -1.7246 -0.6538  1.2774
  308SOL    HW2 1060   1.990   2.219   3.445  1.6443 -1.9396 -0.0574
  309SOL     OW 1061   0.718   1.649   2.256 -0.1646  0.4474 -0.8115
  309SOL    HW1 1062   0.745   1.681   2.342 -0.8660  0.0423 -0.4237
  309SOL    HW2 1063   0.641   1.702   2.234 -0.7411 -0.2954 -0.6120
  310SOL     OW 1064   0.709   2.292   0.260 -0.0120 -0.4143  0.2911
  310SOL    HW1 1065   0.707   2.209   0.306  0.9960 -0.1776  0.8056
  310SOL    HW2 1066   0.646   2.283   0.189 -0.7016 -1.2212  0.9898
  311SOL     OW 1067   2.484   2.813   0.869  0.6099  0.3169  0.3447
  311SOL    HW1 1068   2.543   2.746   0.833  2.6245  0.9973  2.1242
  311SOL    HW2 1069   2.405   2.765   0.892  1.3981 -1.1488  0.1546
  312SOL     OW 1070   1.200   2.190   2.888 -0.2957  0.4900  0.0857
  312SOL    HW1 1071   1.174   2.165   2.977  1.1469  0.8910  0.6670
  312SOL    HW2 1072   1.204   2.108   2.840 -2.2108  0.3785  0.0412
  313SOL     OW 1073   0.879   3.593   0.349 -0.1398  0.3651  0.2401
  313SOL    HW1 1074   0.868   3.601   0.255 -0.9003  1.2706  0.3976
  313SOL    HW2 1075   0.957   3.537   0.359 -0.5238 -0.4095 -0.9021
  314SOL     OW 1076   3.884   0.224   1.960  0.1875  0.2873 -0.6807
  314SOL    HW1 1077   3.815   0.173   1.917  0.3155  0.7954 -1.5016
  314SOL    HW2 1078   3.874   0.312   1.925 -0.2596  0.9475  0.9975
  315SOL     OW 1079   0.718   1.209   2.564 -0.4521  0.5647  0.0404
  315SOL    HW1 1080   0.742   1.301   2.558  0.8199  0.2130 -0.6234
  315SOL    HW2 1081   0.798   1.164   2.590 -0.2831 -0.6539 -2.2346
  316SOL     OW 1082   3.668   3.851   0.663  0.1162  0.5109 -0.0594
  316SOL    HW1 1083   3.698   3.794   0.734 -2.6512  0.2833  1.0587
  316SOL    HW2 1084   3.637   3.930   0.707  0.8507  1.5449 -1.3122
  317SOL     OW 1085   1.384   2.411   1.417  0.1969  0.2362 -0.5072
  317SOL    HW1 1086   1.382   2.503   1.441 -0.8460  0.1632 -0.2571
  317SOL    HW2 1087   1.298   2.395   1.378 -0.6299 -1.2070  1.7113
  318SOL     OW 1088   2.797   1.770   1.811 -0.5593 -0.2660 -0.3295
  318SOL    HW1 1089   2.861   1.776   1.740  1.1374  0.4477  1.1857
  318SOL    HW2 1090   2.746   1.691   1.790  1.5043 -1.4946 -1.0834
  319SOL     OW 1091   0.211   2.064   2.427 -0.2306  0.9343 -0.2386
  319SOL    HW1 1092   0.263   2.081   2.505 -2.0920  0.7306  1.1156
  319SOL    HW2 1093   0.202   1.969   2.424 -0.9820  0.9877 -0.0916
  320SOL     OW 1094   2.888   0.335   2.536  0.2386  0.3755  0.5519
  320SOL    HW1 1095   2.959   0.276   2.511 -0.0411 -0.5883  1.9451
  320SOL    HW2 1096   2.914   0.371   2.621 -1.9119 -1.8186  2.2888
  321SOL     OW 1097   1.974   3.974   3.841 -0.0423  0.4202  0.1897
  321SOL    HW1 1098   1.975   3.886   3.803  0.6078  1.0107 -1.2466
  321SOL    HW2 1099   2.063   3.987   3.875  0.3749  1.0853 -1.0666
  322SOL     OW 1100   0.952   1.489   0.171 -0.3649 -0.2683 -0.4391
  322SOL    HW1 1101   1.027   1.536   0.205  1.1886 -2.9045  0.0854
  322SOL    HW2 1102   0.974   1.472   0.079  0.1342 -1.7516 -0.0767
  323SOL     OW 1103   2.861   1.964   3.180 -0.4647 -0.5638 -0.4123
  323SOL    HW1 1104   2.875   2.028   3.250 -1.8117  0.3781 -0.9518
  323SOL    HW2 1105   2.769   1.941   3.186  0.1096 -3.0084  0.1689
  324SOL     OW 1106   0.746   2.846   3.359 -0.0535  0.2487 -0.5760
  324SOL    HW1 1107   0.781   2.934   3.355 -0.5959  0.4834 -0.2374
  324SOL    HW2 1108   0.812   2.795   3.406  1.6984 -0.2536 -3.3468
  325SOL     OW 1109   3.044   1.303   2.957 -0.4152 -0.1625 -0.1133
  325SOL    HW1 1110   2.980   1.316   3.027  0.1666  0.4868  0.3130
  325SOL    HW2 1111   3.128   1.295   3.003 -0.0751 -0.1255 -0.7170
  326SOL     OW 1112   1.784   0.962   0.457  0.3581 -0.6687  0.1656
  326SOL    HW1 1113   1.828   0.941   0.374 -0.2667  2.2870 -1.0471
  326SOL    HW2 1114   1.693   0.935   0.443  0.8858 -3.3483  1.2872
  327SOL     OW 1115   3.612   0.650   0.047  0.2794  0.2245  0.8853
  327SOL    HW1 1116   3.580   0.567   0.012 -0.1042  0.1496  1.3918
  327SOL    HW2 1117   3.534   0.703   0.058  0.5605  0.7596  0.2970
  328SOL     OW 1118   0.636   3.469   1.037  0.0176 -0.0554 -0.0840
  328SOL    HW1 1119   0.582   3.441   0.963  1.8661 -0.5208 -1.3234
  328SOL    HW2 1120   0.638   3.393   1.095  1.0533 -0.8042 -1.0745
  329SOL     OW 1121   2.366   0.989   0.790  0.1644  0.0462  0.0879
  329SOL    HW1 1122   2.446   0.952   0.828 -0.0904 -1.3797 -0.6762
  329SOL    HW2 1123   2.395   1.026   0.707 -0.1955 -2.1870 -1.1349
  330SOL     OW 1124   2.603   3.153   3.187 -0.2687 -0.3692 -0.1866
  330SOL    HW1 1125   2.600   3.092   3.261  0.9531 -0.5160 -0.2406
  330SOL    HW2 1126   2.620   3.238   3.228  1.4492 -0.5976 -0.3221
  331SOL     OW 1127   3.212   0.448   0.292 -0.3046 -0.2673 -0.3259
  331SOL    HW1 1128   3.155   0.380   0.330  0.1921 -0.7115 -0.3679
  331SOL    HW2 1129   3.249   0.407   0.214 -2.3982  1.1041 -2.1492
  332SOL     OW 1130   0.071   0.095   0.851 -0.3498  0.7797 -0.3200
  332SOL    HW1 1131  -0.010   0.086   0.901 -0.1160  3.7405  0.8225
  332SOL    HW2 1132   0.048   0.153   0.779  0.6217  1.2449 -0.2773
  333SOL     OW 1133   1.016   3.358   0.083  0.0261 -0.5585 -0.6607
  333SOL    HW1 1134   0.928   3.337   0.112  0.2608  0.8440  1.2162
  333SOL    HW2 1135   1.035   3.444   0.121  1.6946 -0.2007 -2.1636
  334SOL     OW 1136   1.803   0.155   1.482 -0.5904 -0.3717 -0.2160
  334SOL    HW1 1137   1.852   0.128   1.405 -1.3392 -2.1814 -0.1090
  334SOL    HW2 1138   1.770   0.074   1.519 -2.1576  0.6371  0.7226
  335SOL     OW 1139   2.790   0.048   2.231 -0.1993  0.6557 -0.9851
  335SOL    HW1 1140   2.885   0.051   2.220 -0.2431  0.4168 -1.4580
  335SOL    HW2 1141   2.756   0.114   2.170 -0.2431  2.1663  0.5965
  336SOL     OW 1142   2.665   3.761   1.168 -0.4718 -0.2500 -0.1400
  336SOL    HW1 1143   2.658   3.837   1.110  1.0936 -0.6298 -0.8710
  336SOL    HW2 1144   2.689   3.798   1.253 -2.0251  0.2430  0.1123
  337SOL     OW 1145   1.214   1.238   3.208 -0.2074  0.0586  0.6002
  337SOL    HW1 1146   1.246   1.318   3.166 -3.2149  0.5454 -1.1092
  337SOL    HW2 1147   1.259   1.168   3.162 -0.5840  0.7238 -0.8775
  338SOL     OW 1148   0.766   3.402   1.971  0.1208 -0.3860  0.1559
  338SOL    HW1 1149   0.710   3.334   1.933  2.3699 -1.4764 -1.4694
  338SOL    HW2 1150   0.853   3.383   1.936  1.5936  1.0415  2.7606
  339SOL     OW 1151   2.145   3.043   2.151 -0.0555  0.1408 -0.5183
  339SOL    HW1 1152   2.112   3.055   2.062 -2.4815 -1.1217  0.1317
  339SOL    HW2 1153   2.201   2.966   2.146 -0.1907  0.0671 -0.9379
  340SOL     OW 1154   0.712   3.595   3.776 -0.1699  0.5514 -0.6056
  340SOL    HW1 1155   0.768   3.604   3.854 -2.1806 -0.8444  1.1266
  340SOL    HW2 1156   0.674   3.682   3.764  1.3372  1.1768 -1.0041
  341SOL     OW 1157   3.779   3.129   2.673  0.2569  0.4970 -0.5582
  341SOL    HW1 1158   3.866   3.140   2.637  0.2879  2.4165  0.0203
  341SOL    HW2 1159   3.793   3.097   2.762  0.4201  1.4017 -0.2482
  342SOL     OW 1160   1.765   3.171   1.567 -0.3826 -0.4287 -0.0414
  342SOL    HW1 1161   1.688   3.171   1.510 -0.3791  1.8838 -0.1468
  342SOL    HW2 1162   1.828   3.227   1.521 -0.0537  0.7749  1.7771
  343SOL     OW 1163   0.326   3.359   1.299  0.3149  0.6111  0.1707
  343SOL    HW1 1164   0.264   3.410   1.351  0.0388  1.2530 -0.7745
  343SOL    HW2 1165   0.411   3.401   1.315  0.0400  1.5977 -0.8625
  344SOL     OW 1166   3.847   3.088   1.394 -0.3846 -0.0789 -0.1571
  344SOL    HW1 1167   3.880   3.042   1.317 -0.2232  0.4916 -0.4336
  344SOL    HW2 1168   3.813   3.019   1.451 -3.0203 -0.3397 -1.8958
  345SOL     OW 1169   3.278   3.580   3.547 -0.7951 -0.3320 -0.5051
  345SOL    HW1 1170   3.231   3.531   3.479 -0.2110 -3.1860  1.0065
  345SOL    HW2 1171   3.370   3.561   3.532 -0.3288  2.1043 -1.1126
  346SOL     OW 1172   3.607   1.611   2.961  0.1515  0.1820  0.0294
  346SOL    HW1 1173   3.598   1.644   3.050  2.8823  0.4078  0.3291
  346SOL    HW2 1174   3.573   1.680   2.905 -1.2689  0.1832  0.8606
  347SOL     OW 1175   0.271   2.514   0.843 -0.2627  0.5889  0.2258
  347SOL    HW1 1176   0.344   2.480   0.793 -0.6601  2.2373 -1.6102
  347SOL    HW2 1177   0.238   2.439   0.893  0.2874 -1.1298 -1.8514
  348SOL     OW 1178   3.255   1.784   2.712  0.0696 -0.0283 -0.1122
  348SOL    HW1 1179   3.181   1.736   2.676 -0.3820  0.2962  0.3758
  348SOL    HW2 1180   3.216   1.858   2.759  0.4536 -1.8192  3.3048
  349SOL     OW 1181   1.368   2.666   0.791 -0.0620  0.0189  0.4358
  349SOL    HW1 1182   1.361   2.571   0.784  0.3316 -0.0029  0.3356
  349SOL    HW2 1183   1.462   2.683   0.792 -0.1126  0.5054 -0.8517
  350SOL     OW 1184   1.281   0.920   3.609 -0.2977  0.9141  0.1547
  350SOL    HW1 1185   1.355   0.903   3.667 -0.7575 -1.0881  0.2341
  350SOL    HW2 1186   1.312   0.988   3.549  1.2682  0.7708  0.7600
  351SOL     OW 1187   1.193   0.437   3.326  0.5338 -0.8773 -0.2211
  351SOL    HW1 1188   1.212   0.351   3.365 -0.2891 -0.3057  1.5803
  351SOL    HW2 1189   1.255   0.496   3.368 -0.3506 -0.2476  0.2415
  352SOL     OW 1190   0.915   3.169   3.256 -0.1252  0.1791 -0.2225
  352SOL    HW1 1191   0.969   3.128   3.324 -1.3735 -0.8041  0.2329
  352SOL    HW2 1192   0.969   3.239   3.221  0.2979  1.2264  2.3233
  353SOL     OW 1193   1.391   3.322   2.111  0.1250 -0.1006 -0.5491
  353SOL    HW1 1194   1.455   3.292   2.175 -0.9052 -2.7959 -0.6354
  353SOL    HW2 1195   1.442   3.372   2.047  1.7529 -0.3173  0.5274
  354SOL     OW 1196   1.781   3.870   0.693 -0.3327  0.1656 -0.0453
  354SOL    HW1 1197   1.694   3.841   0.722 -0.4618 -0.2039 -0.7699
  354SOL    HW2 1198   1.794   3.825   0.610 -0.4484  2.0111 -1.1061
  355SOL     OW 1199   1.770   2.379   2.013 -0.0369 -0.1127  0.1116
  355SOL    HW1 1200   1.702   2.350   1.952 -0.6914  0.8279  0.3629
  355SOL    HW2 1201   1.739   2.351   2.099  0.0318  0.0705  0.1968
  356SOL     OW 1202   1.956   3.866   1.489  0.5619  0.7864  0.1987
  356SOL    HW1 1203   1.869   3.839   1.517  0.4233  0.7441 -0.2695
  356SOL    HW2 1204   2.016   3.805   1.533  0.3125  0.3475 -0.0672
  357SOL     OW 1205   2.625   2.285   3.341 -0.2491 -0.4275  0.0081
  357SOL    HW1 1206   2.591   2.292   3.430 -0.6678 -0.8819 -0.1126
  357SOL    HW2 1207   2.716   2.256   3.352 -0.4992 -1.1401  0.2719
  358SOL     OW 1208   0.569   1.128   1.966  0.3780  0.4059 -0.6423
  358SOL    HW1 1209   0.609   1.126   2.053  0.7811  1.5955 -0.7895
  358SOL    HW2 1210   0.487   1.080   1.977  1.6006 -1.6932 -0.2368
  359SOL     OW 1211   0.830   3.115   0.863 -0.3961 -0.2929  0.0397
  359SOL    HW1 1212   0.771   3.079   0.929 -1.0390 -2.1172 -1.4117
  359SOL    HW2 1213   0.778   3.114   0.782  1.0983 -0.4239 -0.9582
  360SOL     OW 1214   2.948   1.998   2.263  0.5172 -0.1008  0.4283
  360SOL    HW1 1215   2.998   2.057   2.320 -0.0815  0.9467 -0.0906
  360SOL    HW2 1216   2.856   2.018   2.282  0.3047 -0.8022  0.1651
  361SOL     OW 1217   0.483   2.435   1.094  0.2810 -0.0242  0.2014
  361SOL    HW1 1218   0.440   2.492   1.030 -0.7272  1.0687  1.7861
  361SOL    HW2 1219   0.444   2.459   1.178 -0.0891 -2.9599  0.9849
  362SOL     OW 1220   1.762   3.277   2.082  0.4814  0.3213 -0.0351
  362SOL    HW1 1221   1.828   3.211   2.102  3.7616  2.5968 -2.3104
  362SOL    HW2 1222   1.682   3.226   2.064  2.0063 -2.7269  1.1145
  363SOL     OW 1223   3.907   3.338   3.075 -0.5167 -0.2616  0.1553
  363SOL    HW1 1224   3.832   3.319   3.020 -2.3917  0.4634  2.3156
  363SOL    HW2 1225   3.870   3.354   3.162  1.9396  2.0216  0.9259
  364SOL     OW 1226   1.987   2.726   0.309  0.2725  0.2420 -0.5976
  364SOL    HW1 1227   2.041   2.718   0.230  0.3582  0.8932 -0.6100
  364SOL    HW2 1228   2.050   2.725   0.381  0.0604 -3.0648 -0.3072
  365SOL     OW 1229   2.354   0.094   1.826  0.1019 -1.0664  0.3264
  365SOL    HW1 1230   2.330   0.009   1.790 -0.8537 -0.5681 -0.2778
  365SOL    HW2 1231   2.304   0.157   1.773  0.3320 -0.1734  1.1441
  366SOL     OW 1232   1.044   0.568   2.412  0.2757  0.1721 -0.0733
  366SOL    HW1 1233   1.027   0.621   2.489 -0.1464 -0.2350  0.1193
  366SOL    HW2 1234   0.959   0.531   2.389  0.2863  0.7304 -1.0721
  367SOL     OW 1235   3.216   2.499   1.799 -0.6152  0.1165  0.0260
  367SOL    HW1 1236   3.217   2.542   1.885 -0.3311 -2.1551  1.2298
  367SOL    HW2 1237   3.147   2.433   1.806  0.0764 -0.7591 -1.1551
  368SOL     OW 1238   1.878   0.960   1.251  0.1057  0.0685  0.6786
  368SOL    HW1 1239   1.910   0.916   1.173  1.8330 -0.6821  1.7482
  368SOL    HW2 1240   1.836   1.040   1.219  1.5242  0.2051 -0.9501
  369SOL     OW 1241   3.460   0.295   2.404  0.1387 -0.1728  0.1912
  369SOL    HW1 1242   3.554   0.300   2.388 -0.1505  0.0152 -1.6113
  369SOL    HW2 1243   3.421   0.348   2.335 -1.2816  0.2437  1.2624
  370SOL     OW 1244   0.569   3.534   1.292  0.4558 -0.0982  0.8776
  370SOL    HW1 1245   0.532   3.621   1.277  1.8465  0.3103 -0.4786
  370SOL    HW2 1246   0.610   3.511   1.208  1.1765 -1.5244  1.5869
  371SOL     OW 1247   2.362   2.317   3.041 -0.0494  0.1068 -0.1017
  371SOL    HW1 1248   2.360   2.382   3.111  1.1133  0.1403 -0.0754
  371SOL    HW2 1249   2.322   2.361   2.966  1.1617  1.0440 -0.2221
  372SOL     OW 1250   0.878   0.781   3.141 -0.2310  0.8776 -0.6014
  372SOL    HW1 1251   0.959   0.810   3.182 -0.9977 -1.2941  2.9248
  372SOL    HW2 1252   0.906   0.730   3.065  1.7797 -0.0241  0.6708
  373SOL     OW 1253   1.555   1.277   3.270 -0.1708  0.3182 -0.1707
  373SOL    HW1 1254   1.483   1.314   3.322 -0.4531  1.5796 -1.4011
  373SOL    HW2 1255   1.633   1.323   3.302 -0.1233  0.0732  0.0793
  374SOL     OW 1256   1.474   0.340   1.083 -0.2650  0.4553 -0.0927
  374SOL    HW1 1257   1.496   0.432   1.066  0.3040  0.5722  1.1207
  374SOL    HW2 1258   1.558   0.295   1.079 -0.7677 -0.3947 -2.6514
  375SOL     OW 1259   3.523   1.223   2.898  0.0259 -0.1058 -0.3195
  375SOL    HW1 1260   3.536   1.129   2.911 -1.3030 -0.4321 -1.2082
  375SOL    HW2 1261   3.446   1.229   2.842 -1.8145  1.6051  2.2134
  376SOL     OW 1262   3.032   3.084   2.477  0.2799 -0.5189 -0.3082
  376SOL    HW1 1263   3.095   3.155   2.491  1.8166 -1.8370 -0.2799
  376SOL    HW2 1264   3.033   3.070   2.382 -1.1870  0.4884 -0.4999
  377SOL     OW 1265   2.067   1.088   0.089  0.4580  0.5291  0.5072
  377SOL    HW1 1266   2.036   1.086  -0.001  0.1587 -1.1956  0.6283
  377SOL    HW2 1267   2.139   1.152   0.088  1.1773 -0.2423 -1.1989
  378SOL     OW 1268   1.946   2.013   0.057  0.0226  0.2166  0.7981
  378SOL    HW1 1269   2.038   2.007   0.031 -0.6874 -1.6603 -1.6444
  378SOL    HW2 1270   1.904   2.060  -0.015 -1.3629 -1.4394  0.4853
  379SOL     OW 1271   2.753   3.335   1.683 -0.1125 -0.5260 -0.5001
  379SOL    HW1 1272   2.741   3.402   1.615 -0.9822 -0.9458 -0.7833
  379SOL    HW2 1273   2.753   3.384   1.765 -0.8682 -0.1765 -0.6927
  380SOL     OW 1274   2.187   3.027   3.898 -0.3573  0.0030  0.1912
  380SOL    HW1 1275   2.235   3.068   3.969  1.1869 -2.7351  0.8847
  380SOL    HW2 1276   2.246   3.035   3.822  0.4907 -1.7814  0.6077
  381SOL     OW 1277   1.420   2.880   0.017  0.1168  0.1576 -0.1874
  381SOL    HW1 1278   1.469   2.894  -0.064 -0.0980  0.6130 -0.2417
  381SOL    HW2 1279   1.468   2.929   0.083 -0.1121  0.3792 -0.1852
  382SOL     OW 1280   0.152   3.796   0.174 -0.7438  0.1920 -0.2600
  382SOL    HW1 1281   0.120   3.762   0.258 -0.4427  0.8115  0.1180
  382SOL    HW2 1282   0.082   3.776   0.112 -1.2247  0.2268  0.2576
  383SOL     OW 1283   0.407   0.479   3.114 -0.4037 -0.1858 -0.5219
  383SOL    HW1 1284   0.463   0.402   3.108  0.1779  0.3236 -1.9192
  383SOL    HW2 1285   0.325   0.452   3.072 -0.2854 -0.1181 -0.7965
  384SOL     OW 1286   0.489   1.458   2.250  0.0968 -0.3401  0.1831
  384SOL    HW1 1287   0.583   1.473   2.251  0.1953 -0.9613  0.9321
  384SOL    HW2 1288   0.476   1.377   2.299 -0.9246  0.3449  1.1150
  385SOL     OW 1289   3.841   0.444   3.716  0.1973  0.1612 -0.5477
  385SOL    HW1 1290   3.859   0.384   3.643 -2.1350 -0.4177 -0.7283
  385SOL    HW2 1291   3.783   0.510   3.679 -0.5180  0.2196  0.6164
  386SOL     OW 1292   3.720   3.455   0.025 -0.0569  0.0988 -0.2955
  386SOL    HW1 1293   3.631   3.444   0.059 -0.1688  0.4999 -0.4526
  386SOL    HW2 1294   3.771   3.482   0.101 -0.0811 -0.0855 -0.2145
  387SOL     OW 1295   2.535   2.602   2.887 -0.4476  0.4775 -0.2278
  387SOL    HW1 1296   2.557   2.690   2.919 -1.0468  0.3187  0.6881
  387SOL    HW2 1297   2.575   2.597   2.801  1.5642  0.8280  0.6117
  388SOL     OW 1298   3.447   3.811   1.770 -0.4353 -0.1038 -0.4489
  388SOL    HW1 1299   3.490   3.737   1.728 -0.6687  0.3765 -1.5903
  388SOL    HW2 1300   3.410   3.861   1.697 -0.4408  1.0285  0.2992
  389SOL     OW 1301   0.534   0.709   3.881 -0.4184 -0.0358  0.1103
  389SOL    HW1 1302   0.520   0.763   3.803 -1.3072  2.8428  2.1200
  389SOL    HW2 1303   0.446   0.684   3.909 -0.2633  0.7208  1.3245
  390SOL     OW 1304   2.903   1.630   2.180 -0.3434  0.3526  0.3054
  390SOL    HW1 1305   2.904   1.536   2.197  0.3847  0.2844 -0.0794
  390SOL    HW2 1306   2.811   1.656   2.191 -0.4082 -0.2356  1.2952
  391SOL     OW 1307   1.256   1.439   1.397 -0.0139  0.3195  0.0220
  391SOL    HW1 1308   1.223   1.390   1.472  1.5088 -3.3906 -1.4663
  391SOL    HW2 1309   1.182   1.443   1.336 -0.0670 -0.4606  0.0314
  392SOL     OW 1310   0.499   2.617   3.554 -0.5569  0.5290  0.0329
  392SOL    HW1 1311   0.479   2.707   3.529 -1.7022  0.0257 -0.9844
  392SOL    HW2 1312   0.455   2.563   3.488  0.0121 -0.7853  0.6775
  393SOL     OW 1313   3.924   2.961   0.282  0.1960 -0.5617  0.2454
  393SOL    HW1 1314   3.949   2.986   0.371  0.9072  4.1769 -1.0193
  393SOL    HW2 1315   3.831   2.984   0.276  0.1407 -0.9099 -0.2590
  394SOL     OW 1316   2.303   3.835   2.308  0.0617  0.4793  0.5165
  394SOL    HW1 1317   2.339   3.832   2.219 -1.6862 -2.1300 -0.2391
  394SOL    HW2 1318   2.323   3.923   2.339  0.6276  1.5503 -2.5219
  395SOL     OW 1319   3.708   1.167   0.992  0.0478  0.4263  0.0298
  395SOL    HW1 1320   3.774   1.178   0.923 -0.6831 -0.3575 -0.8347
  395SOL    HW2 1321   3.635   1.222   0.964 -1.3552 -1.9485 -1.3361
  396SOL     OW 1322   0.198   2.396   1.537 -0.2234  0.1621 -0.0915
  396SOL    HW1 1323   0.104   2.384   1.543 -0.2463  0.3968  0.0923
  396SOL    HW2 1324   0.213   2.484   1.572  0.0611  0.1339 -0.1333
  397SOL     OW 1325   0.703   1.667   1.261  0.3680 -0.5315 -0.1245
  397SOL    HW1 1326   0.760   1.715   1.321 -1.3493  1.3398  0.1117
  397SOL    HW2 1327   0.617   1.672   1.302 -0.4230 -1.2000 -1.6350
  398SOL     OW 1328   2.630   2.721   2.093  0.0680 -0.1314 -0.5434
  398SOL    HW1 1329   2.721   2.713   2.122 -0.5718  0.6328  1.9007
  398SOL    HW2 1330   2.596   2.631   2.096  0.6129 -0.3666 -1.1028
  399SOL     OW 1331   0.414   1.174   0.555 -0.6279 -0.9262 -0.1641
  399SOL    HW1 1332   0.502   1.147   0.582  0.3272  1.0314 -1.1487
  399SOL    HW2 1333   0.416   1.174   0.460 -0.9787  1.1933 -0.2198
  400SOL     OW 1334   3.687   1.900   1.473 -0.0343 -0.0959  0.1933
  400SOL    HW1 1335   3.762   1.957   1.453  0.6935 -1.2851 -0.6316
  400SOL    HW2 1336   3.724   1.812   1.474 -1.4939 -0.7577 -0.6357
  401SOL     OW 1337   0.087   1.495   0.210  0.5280  0.4125 -0.3737
  401SOL    HW1 1338   0.061   1.558   0.278  0.4040 -1.1052  1.0462
  401SOL    HW2 1339   0.005   1.462   0.175  0.5883  0.4887 -0.5876
  402SOL     OW 1340   0.658   0.492   2.731  0.3127  0.1769  0.2074
  402SOL    HW1 1341   0.604   0.414   2.715 -1.3487  1.0776  1.1924
  402SOL    HW2 1342   0.627   0.555   2.665 -3.1165  2.2174  3.3979
  403SOL     OW 1343   1.185   0.729   0.440 -0.4208 -0.6694  0.2885
  403SOL    HW1 1344   1.251   0.733   0.371  0.9103 -0.0436  1.5240
  403SOL    HW2 1345   1.103   0.755   0.397  0.9095  2.8368 -0.4761
  404SOL     OW 1346   2.114   3.485   2.670  0.9767 -0.4721  0.3319
  404SOL    HW1 1347   2.115   3.420   2.741 -0.5321 -0.8524  0.0398
  404SOL    HW2 1348   2.028   3.475   2.630  0.6790  1.7474  0.2960
  405SOL     OW 1349   0.806   1.878   2.942 -0.3053  0.7817 -0.1428
  405SOL    HW1 1350   0.767   1.829   2.870  0.9655  1.1765 -1.1383
  405SOL    HW2 1351   0.783   1.829   3.021  0.7860 -1.3478 -1.0834
  406SOL     OW 1352   2.212   0.001   0.616 -0.5676 -0.3876 -0.3780
  406SOL    HW1 1353   2.152   0.043   0.555 -1.4148 -3.6694 -2.0762
  406SOL    HW2 1354   2.163  -0.004   0.698 -0.8419  0.9368 -0.4521
  407SOL     OW 1355   2.262   1.503   1.566  0.7167 -0.6252 -0.2243
  407SOL    HW1 1356   2.223   1.420   1.539  0.0095  0.3480 -2.3652
  407SOL    HW2 1357   2.229   1.517   1.655 -1.0684 -1.4979 -0.7079
  408SOL     OW 1358   1.739   1.426   3.475  0.6532 -0.0278  0.3738
  408SOL    HW1 1359   1.814   1.466   3.520  1.3502 -2.4478  1.5179
  408SOL    HW2 1360   1.699   1.370   3.541 -1.0289 -0.2629 -0.7918
  409SOL     OW 1361   3.789   2.233   3.189  0.2418  0.6902 -0.4621
  409SOL    HW1 1362   3.800   2.140   3.210  0.7495  0.7314 -0.5351
  409SOL    HW2 1363   3.747   2.270   3.267  0.4496  0.4869 -0.2523
  410SOL     OW 1364   2.016   3.206   2.730 -0.4788 -0.3532  0.2018
  410SOL    HW1 1365   2.055   3.159   2.656 -1.8799 -2.0452  0.4707
  410SOL    HW2 1366   1.954   3.266   2.689  2.1798  2.3387 -0.2258
  411SOL     OW 1367   3.470   1.210   3.509  0.4458 -0.2709  0.4668
  411SOL    HW1 1368   3.396   1.239   3.562  0.5678  0.4153  0.2706
  411SOL    HW2 1369   3.440   1.221   3.419  0.7603 -0.0527  0.3887
  412SOL     OW 1370   3.187   3.235   0.089 -0.3518 -0.2332 -0.3595
  412SOL    HW1 1371   3.254   3.251   0.024  1.6236 -0.4371  1.5075
  412SOL    HW2 1372   3.173   3.141   0.087  0.8297 -0.4490  0.4947
  413SOL     OW 1373   2.757   0.877   2.892 -0.2527  0.2014 -0.7488
  413SOL    HW1 1374   2.716   0.897   2.808  0.4240 -0.3995 -1.2379
  413SOL    HW2 1375   2.747   0.782   2.901 -0.4875  0.2806 -0.0483
  414SOL     OW 1376   3.915   0.266   3.256  0.3863 -0.2976 -0.0885
  414SOL    HW1 1377   3.981   0.332   3.234 -0.9070  1.3355  0.7231
  414SOL    HW2 1378   3.836   0.295   3.210  0.1979 -2.2850 -1.1373
  415SOL     OW 1379   1.946   2.129   3.152  0.4677 -0.5728 -0.4256
  415SOL    HW1 1380   1.926   2.052   3.206 -1.6124 -1.1840 -1.9535
  415SOL    HW2 1381   1.997   2.094   3.079  4.2843  0.4160  1.4917
  416SOL     OW 1382   0.424   2.534   3.830 -0.7443  0.5510 -0.1095
  416SOL    HW1 1383   0.450   2.610   3.881  2.7230 -1.1345  0.8832
  416SOL    HW2 1384   0.457   2.551   3.742  3.2819 -1.0652  0.8779
  417SOL     OW 1385   0.567   2.618   0.558 -0.6766 -0.2800  0.4102
  417SOL    HW1 1386   0.558   2.695   0.501  0.3448 -0.9287 -0.6549
  417SOL    HW2 1387   0.582   2.655   0.645  0.3918  0.7384 -0.1821
  418SOL     OW 1388   1.753   3.728   1.926  0.1992 -0.0305 -0.0917
  418SOL    HW1 1389   1.779   3.662   1.861  1.1585 -0.1961  0.4399
  418SOL    HW2 1390   1.797   3.701   2.007  0.5723  1.2270  0.1560
  419SOL     OW 1391   0.640   1.318   0.982 -0.0828  0.7721  0.0392
  419SOL    HW1 1392   0.689   1.399   0.995 -0.7105  1.1391  0.1804
  419SOL    HW2 1393   0.598   1.329   0.896  1.6931 -0.3983 -1.0505
  420SOL     OW 1394   2.398   0.645   0.608 -0.1352  0.4148 -0.0413
  420SOL    HW1 1395   2.482   0.602   0.597  0.4684  1.1064  1.5707
  420SOL    HW2 1396   2.404   0.724   0.555  0.4550  0.7433  0.5046
  421SOL     OW 1397   0.163   3.086   2.268  0.4821 -0.9626  0.0846
  421SOL    HW1 1398   0.168   3.018   2.334  0.8970 -2.0228 -1.0088
  421SOL    HW2 1399   0.075   3.123   2.278 -0.1960 -2.4673 -0.0787
  422SOL     OW 1400   2.842   1.586   2.713  0.7141  0.6842  0.0026
  422SOL    HW1 1401   2.831   1.491   2.716  0.4591  0.7159  0.1260
  422SOL    HW2 1402   2.753   1.620   2.700  0.8290  0.8956 -0.2344
  423SOL     OW 1403   2.391   0.855   0.407  0.0294 -0.9356 -0.6127
  423SOL    HW1 1404   2.455   0.791   0.375  0.6853  0.0984 -1.4561
  423SOL    HW2 1405   2.333   0.871   0.332  0.3370 -0.0010 -0.6676
  424SOL     OW 1406   1.282   1.999   2.714 -0.5051 -0.3443 -0.2470
  424SOL    HW1 1407   1.263   1.919   2.666 -0.0598 -0.3881 -0.3597
  424SOL    HW2 1408   1.359   2.036   2.669 -0.5115 -0.0233 -0.0007
  425SOL     OW 1409   3.879   2.303   1.462 -0.6298 -0.1270 -0.4430
  425SOL    HW1 1410   3.912   2.217   1.490  0.9728 -0.0683 -1.9578
  425SOL    HW2 1411   3.839   2.340   1.540 -0.7377 -1.9593  0.4312
  426SOL     OW 1412   1.590   2.828   1.528  0.1179 -0.0158 -0.1789
  426SOL    HW1 1413   1.507   2.779   1.535  0.2923 -0.1524  1.2939
  426SOL    HW2 1414   1.656   2.760   1.514  0.1108 -0.0012 -0.2857
  427SOL     OW 1415   1.493   1.923   3.205 -0.4687  0.4042  1.2902
  427SOL    HW1 1416   1.474   1.868   3.281 -1.5821 -1.5511 -0.3147
  427SOL    HW2 1417   1.543   1.866   3.147  0.8275  2.0358  0.7277
  428SOL     OW 1418   3.497   3.171   1.846  0.3000 -0.4242  0.3291
  428SOL    HW1 1419   3.545   3.224   1.783 -0.5349  0.7608  0.6659
  428SOL    HW2 1420   3.445   3.111   1.793 -0.3235  0.5002 -0.1199
  429SOL     OW 1421   1.323   2.975   2.509  0.1655 -0.9012  0.5505
  429SOL    HW1 1422   1.306   2.990   2.602 -0.9693 -0.4939  0.2895
  429SOL    HW2 1423   1.246   3.010   2.464  1.0756 -0.2910 -0.6092
  430SOL     OW 1424   3.251   3.866   0.016  0.3452  0.7707 -0.2331
  430SOL    HW1 1425   3.277   3.919   0.092 -1.5183  1.3367  0.0831
  430SOL    HW2 1426   3.174   3.818   0.047  0.8715 -0.6766 -1.1196
  431SOL     OW 1427   1.498   0.919   0.638  0.3640  0.1823 -0.2651
  431SOL    HW1 1428   1.544   0.876   0.566 -1.7545 -2.0782 -0.3850
  431SOL    HW2 1429   1.408   0.930   0.605 -0.0991  1.1542  1.2391
  432SOL     OW 1430   0.347   2.785   2.294 -0.6769  0.3067  0.7191
  432SOL    HW1 1431   0.392   2.870   2.288 -1.9011  1.0860  1.9320
  432SOL    HW2 1432   0.418   2.721   2.287  0.5039  1.4658  1.4430
  433SOL     OW 1433   3.707   0.652   3.551  0.1480  0.5861 -0.3397
  433SOL    HW1 1434   3.724   0.704   3.472 -0.5798  0.9958 -0.2327
  433SOL    HW2 1435   3.612   0.645   3.555 -0.0689  3.1812  2.1105
  434SOL     OW 1436   1.722   1.559   2.396 -0.0096 -0.1749  0.1081
  434SOL    HW1 1437   1.746   1.559   2.488  1.6034 -0.0386 -0.2845
  434SOL    HW2 1438   1.786   1.503   2.354 -0.8226 -0.3743 -0.9191
  435SOL     OW 1439   0.710   3.258   1.177 -0.3545 -0.3818 -0.0613
  435SOL    HW1 1440   0.725   3.224   1.265 -0.4531 -0.7351 -0.1771
  435SOL    HW2 1441   0.794   3.298   1.153  0.6398 -2.7332 -0.8689
  436SOL     OW 1442   1.920   1.486   1.588  0.2223  0.3941 -0.5513
  436SOL    HW1 1443   1.833   1.493   1.548 -0.3932  0.2784  0.7415
  436SOL    HW2 1444   1.964   1.418   1.536 -0.9469 -0.5474 -0.3514
  437SOL     OW 1445   2.087   1.395   2.554  0.1483  0.8941  0.3139
  437SOL    HW1 1446   2.160   1.401   2.492 -1.5160 -1.4949 -2.1191
  437SOL    HW2 1447   2.112   1.323   2.613  0.8022  1.7350  1.0781
  438SOL     OW 1448   2.548   3.145   1.804  0.6166 -0.3566 -0.7884
  438SOL    HW1 1449   2.586   3.149   1.892 -1.3089  0.7626  0.0606
  438SOL    HW2 1450   2.603   3.202   1.751  1.3521 -0.4328 -0.1209
  439SOL     OW 1451   2.205   3.687   1.450  0.3790  0.1957 -0.4441
  439SOL    HW1 1452   2.279   3.675   1.391 -0.3429 -1.9244 -1.0352
  439SOL    HW2 1453   2.158   3.603   1.446 -1.2751  0.9919  0.9712
  440SOL     OW 1454   0.692   2.027   0.371  0.1435 -0.0712 -0.4921
  440SOL    HW1 1455   0.599   2.048   0.382  0.2496  0.0244  0.2593
  440SOL    HW2 1456   0.697   1.983   0.286 -1.0414 -2.7925  0.7471
  441SOL     OW 1457   2.926   3.751   0.467 -0.3974 -0.1220  0.2119
  441SOL    HW1 1458   2.917   3.668   0.515 -0.6682  0.6533  1.5708
  441SOL    HW2 1459   3.020   3.758   0.450 -0.3036 -0.4657  0.5531
  442SOL     OW 1460   2.118   1.591   1.184  0.3549  0.2994 -0.1087
  442SOL    HW1 1461   2.028   1.573   1.156  0.9937  1.0698 -2.9849
  442SOL    HW2 1462   2.110   1.666   1.243 -0.9766 -0.3623  0.5854
  443SOL     OW 1463   2.985   0.821   2.279 -0.1108 -0.0492  0.0399
  443SOL    HW1 1464   2.920   0.752   2.264 -2.1320  1.6653  0.4266
  443SOL    HW2 1465   2.982   0.837   2.373  0.2007  0.6823 -0.0692
  444SOL     OW 1466   3.726   2.743   2.120  0.0675 -0.0008 -0.9925
  444SOL    HW1 1467   3.723   2.731   2.025 -0.9757  0.3580 -1.0233
  444SOL    HW2 1468   3.775   2.824   2.133  0.4567 -0.2027 -1.2134
  445SOL     OW 1469   1.120   2.844   3.168  0.0708  0.8103 -0.2981
  445SOL    HW1 1470   1.032   2.809   3.154 -0.9768  3.3165 -0.5552
  445SOL    HW2 1471   1.156   2.790   3.238 -1.3382 -0.7915 -0.7339
  446SOL     OW 1472   0.511   0.299   2.614  0.0122 -0.6216  0.0422
  446SOL    HW1 1473   0.426   0.317   2.654  1.0669  1.6013  1.5094
  446SOL    HW2 1474   0.498   0.321   2.521 -0.9268  0.0732  0.3137
  447SOL     OW 1475   2.180   3.280   3.281  0.0581 -0.4212 -0.0196
  447SOL    HW1 1476   2.172   3.368   3.318 -2.0230  0.0543 -1.3772
  447SOL    HW2 1477   2.143   3.289   3.193  1.6259 -2.2431 -0.9109
  448SOL     OW 1478   0.710   1.361   3.046 -0.9632 -0.7455  0.6048
  448SOL    HW1 1479   0.776   1.296   3.023  0.9165  1.3687 -0.3358
  448SOL    HW2 1480   0.627   1.318   3.029  0.1877 -2.9816  0.2956
  449SOL     OW 1481   0.153   0.190   0.600 -0.1420 -0.4827  0.5436
  449SOL    HW1 1482   0.138   0.273   0.555 -0.8034 -1.3197 -0.8469
  449SOL    HW2 1483   0.192   0.133   0.533  0.1111 -1.3623  1.4131
  450SOL     OW 1484   1.783   3.587   0.865 -0.2085 -0.0317  0.1544
  450SOL    HW1 1485   1.834   3.565   0.944 -1.4476 -0.1929  0.9300
  450SOL    HW2 1486   1.817   3.672   0.838  0.7142 -0.2870  0.4529
  451SOL     OW 1487   2.713   1.683   3.464 -0.1733 -0.2905  0.2570
  451SOL    HW1 1488   2.630   1.714   3.501  0.3560  0.2252  1.0228
  451SOL    HW2 1489   2.780   1.719   3.521  0.6690  0.4568 -1.1519
  452SOL     OW 1490   0.312   1.529   1.355 -0.0954  0.0542  0.8901
  452SOL    HW1 1491   0.249   1.466   1.320  1.8927 -1.2206 -0.5962
  452SOL    HW2 1492   0.311   1.602   1.293 -2.2774  1.5811  2.5256
  453SOL     OW 1493   3.077   2.260   1.820 -0.5868 -0.6193 -0.4798
  453SOL    HW1 1494   3.026   2.284   1.898 -0.5329 -0.5300 -0.4714
  453SOL    HW2 1495   3.064   2.166   1.810  1.7520 -1.2391  1.3499
  454SOL     OW 1496   0.547   1.935   1.367  0.0231 -0.7408 -0.2498
  454SOL    HW1 1497   0.616   2.001   1.376 -1.4052  0.9324 -1.1830
  454SOL    HW2 1498   0.571   1.867   1.430  1.6823  0.5228  0.5499
  455SOL     OW 1499   3.778   3.918   2.222 -0.0643 -0.1956 -0.2445
  455SOL    HW1 1500   3.861   3.932   2.177 -0.2730 -0.9019 -0.8829
  455SOL    HW2 1501   3.749   3.832   2.190 -1.7098  0.6461 -1.1010
  456SOL     OW 1502   0.657   0.081   1.175 -0.1855  0.1619 -0.4028
  456SOL    HW1 1503   0.722   0.096   1.244 -0.3790  2.0859 -0.5860
  456SOL    HW2 1504   0.576   0.065   1.223 -0.0872  0.3427 -0.1727
  457SOL     OW 1505   1.166   2.299   0.901 -0.1403  0.0926 -0.2845
  457SOL    HW1 1506   1.118   2.310   0.819  0.7142 -1.5497 -1.0450
  457SOL    HW2 1507   1.235   2.365   0.897  0.9288 -1.0695 -1.6961
  458SOL     OW 1508   3.193   3.768   1.992 -0.1268 -0.6183  0.3465
  458SOL    HW1 1509   3.119   3.777   1.931 -0.0656 -1.6546  0.0920
  458SOL    HW2 1510   3.235   3.854   1.991 -0.5962 -0.3830 -0.4683
  459SOL     OW 1511   3.063   1.067  -0.006 -0.1243 -0.2821 -0.1870
  459SOL    HW1 1512   3.123   1.141  -0.005 -1.5488  0.9193  0.6707
  459SOL    HW2 1513   3.003   1.083   0.067 -0.9947 -1.8421 -0.5037
  460SOL     OW 1514   3.153   3.003   2.174 -0.2629 -0.0129  0.0712
  460SOL    HW1 1515   3.126   2.958   2.094 -0.5609  0.0249  0.1491
  460SOL    HW2 1516   3.246   2.984   2.182 -0.3818 -0.5861  0.0865
  461SOL     OW 1517   0.721   0.912   2.713 -0.0314  0.0291 -0.1030
  461SOL    HW1 1518   0.642   0.881   2.668  1.0716 -4.1792  0.3964
  461SOL    HW2 1519   0.707   0.889   2.805  1.5197 -0.3533  0.0662
  462SOL     OW 1520   3.885   0.237   3.537 -0.5957  0.6543  0.0174
  462SOL    HW1 1521   3.901   0.234   3.442 -3.4809  1.4586 -0.6132
  462SOL    HW2 1522   3.966   0.207   3.576  0.0732 -1.6036 -2.7663
  463SOL     OW 1523   0.833   0.045   2.623 -0.5126  0.0885  0.1323
  463SOL    HW1 1524   0.875  -0.032   2.663  0.2066  0.7677  0.7157
  463SOL    HW2 1525   0.836   0.112   2.691 -1.5224  0.5123 -0.2224
  464SOL     OW 1526   2.190   3.967   1.021 -0.3923 -0.3224 -0.1603
  464SOL    HW1 1527   2.258   3.901   1.035 -0.5730 -0.6465 -0.7845
  464SOL    HW2 1528   2.122   3.945   1.085 -0.9932 -1.4891 -1.1668
  465SOL     OW 1529   3.409   3.534   0.099  0.0485 -0.5608  0.3411
  465SOL    HW1 1530   3.393   3.604   0.036 -0.1457  0.0082  1.0059
  465SOL    HW2 1531   3.359   3.459   0.065  1.0106 -0.6713 -0.8617
  466SOL     OW 1532   2.356   0.128   2.411  0.5220 -0.0340 -0.3759
  466SOL    HW1 1533   2.344   0.183   2.334  2.1041 -0.5448 -1.0429
  466SOL    HW2 1534   2.292   0.160   2.475  1.2881  2.4928 -0.7649
  467SOL     OW 1535   2.080   0.990   1.710  0.3192  0.4406 -0.0760
  467SOL    HW1 1536   2.001   0.960   1.664  0.2851  0.8560 -0.2958
  467SOL    HW2 1537   2.151   0.940   1.669  0.2106  0.3048 -0.1028
  468SOL     OW 1538   2.554   3.501   3.780 -0.4229 -0.1129 -0.0308
  468SOL    HW1 1539   2.588   3.590   3.777  1.9317 -0.9444 -1.4282
  468SOL    HW2 1540   2.606   3.454   3.715 -3.2127 -1.9927 -1.0849
  469SOL     OW 1541   0.883   1.110   3.013  0.0995  0.1367 -0.1045
  469SOL    HW1 1542   0.946   1.122   2.941 -1.9222  2.0296 -1.7072
  469SOL    HW2 1543   0.837   1.029   2.992  0.0771  0.2519 -0.5149
  470SOL     OW 1544   0.349   2.896   2.986  0.0420  0.1624  0.0661
  470SOL    HW1 1545   0.424   2.839   2.967 -0.5746 -0.2707 -1.1549
  470SOL    HW2 1546   0.385   2.965   3.042  1.0371 -0.8215  0.6579
  471SOL     OW 1547   1.114   1.225   2.544  0.2863  0.0880  0.0419
  471SOL    HW1 1548   1.048   1.155   2.547 -0.9774  1.2767  0.7464
  471SOL    HW2 1549   1.075   1.293   2.490  1.3391  0.4313 -0.3088
  472SOL     OW 1550   2.479   1.313   1.940  0.1194  0.1542  0.2053
  472SOL    HW1 1551   2.391   1.274   1.940 -0.5324  1.5358 -0.0725
  472SOL    HW2 1552   2.468   1.395   1.988  1.9583 -1.0285  2.8693
  473SOL     OW 1553   0.045   2.555   3.234  0.1735  0.3825 -0.1318
  473SOL    HW1 1554  -0.029   2.561   3.295 -1.4835  1.8889 -2.1332
  473SOL    HW2 1555   0.041   2.636   3.183  0.2347 -1.5293 -3.5054
  474SOL     OW 1556   3.015   1.998   1.786  0.1489 -0.6466  0.6792
  474SOL    HW1 1557   3.046   1.967   1.871  1.1549  0.0913  0.6058
  474SOL    HW2 1558   2.921   1.978   1.786  0.1183 -0.6280  1.9785
  475SOL     OW 1559   2.704   2.354   1.241 -0.0645 -0.1990  0.2419
  475SOL    HW1 1560   2.645   2.400   1.300 -1.1399  0.3595 -1.2048
  475SOL    HW2 1561   2.759   2.300   1.298 -3.3468 -2.4401  1.6187
  476SOL     OW 1562   1.899   0.176   0.117  0.5090 -0.6119  0.5410
  476SOL    HW1 1563   1.825   0.120   0.138 -1.7125  0.8941 -2.5071
  476SOL    HW2 1564   1.945   0.130   0.047  1.8969 -1.0346  1.6827
  477SOL     OW 1565   0.526   2.357   0.054 -0.8854 -0.1893  0.2419
  477SOL    HW1 1566   0.472   2.376   0.130 -1.9618 -2.2757  0.0726
  477SOL    HW2 1567   0.507   2.428  -0.008  0.2437  1.6997  1.9671
  478SOL     OW 1568   0.286   0.879   3.188 -0.3958  0.1722 -0.5368
  478SOL    HW1 1569   0.367   0.828   3.182  2.2182  3.6062  1.8475
  478SOL    HW2 1570   0.281   0.905   3.280 -1.3388  4.2686 -1.5376
  479SOL     OW 1571   2.072   2.736   2.129  0.5038  0.2111 -0.2611
  479SOL    HW1 1572   2.070   2.816   2.078  1.1885 -0.2781 -1.0736
  479SOL    HW2 1573   2.010   2.678   2.085  1.9225 -0.6122 -1.2594
  480SOL     OW 1574   0.112   3.589   2.136  0.7690  0.3347 -0.5104
  480SOL    HW1 1575   0.197   3.574   2.177  1.0811 -2.6271 -1.9396
  480SOL    HW2 1576   0.053   3.528   2.181 -0.1365  0.9301 -0.8635
  481SOL     OW 1577   2.456   1.024   3.626 -0.0805  0.8077 -0.0784
  481SOL    HW1 1578   2.459   1.119   3.610  1.6832  0.7239 -0.4037
  481SOL    HW2 1579   2.499   0.985   3.550 -1.1780 -0.3218 -0.1664
  482SOL     OW 1580   1.503   2.452   2.483 -0.4509 -0.2875 -0.2816
  482SOL    HW1 1581   1.585   2.451   2.434  0.8888 -3.9395  1.6967
  482SOL    HW2 1582   1.520   2.511   2.557  0.5039 -1.2013  0.2440
  483SOL     OW 1583   3.366   1.134   2.611 -0.2065  0.2627 -0.4101
  483SOL    HW1 1584   3.303   1.139   2.682 -2.1590  0.1037 -2.0462
  483SOL    HW2 1585   3.327   1.073   2.548  0.1990  2.2597 -2.7504
  484SOL     OW 1586   2.252   3.506   1.223  0.9090  0.6761 -0.1163
  484SOL    HW1 1587   2.339   3.517   1.261  1.3051  0.5023 -0.9421
  484SOL    HW2 1588   2.224   3.418   1.252  1.1164  0.6281 -0.0620
  485SOL     OW 1589   2.825   1.860   0.866 -0.1420  0.2130  0.0069
  485SOL    HW1 1590   2.900   1.910   0.898  0.2731 -0.6532  0.4196
  485SOL    HW2 1591   2.764   1.858   0.940 -0.2902  0.3460 -0.1088
  486SOL     OW 1592   3.055   3.933   3.783  0.5967  0.8801  0.0741
  486SOL    HW1 1593   3.039   3.849   3.739 -1.5152  1.1136  0.2746
  486SOL    HW2 1594   3.131   3.917   3.839 -0.4569 -1.2892  1.0167
  487SOL     OW 1595   2.716   3.404   2.000 -0.0013  0.3487  0.0081
  487SOL    HW1 1596   2.786   3.339   1.991 -1.4197 -0.9977 -2.3781
  487SOL    HW2 1597   2.681   3.389   2.088  1.4159 -0.2998  0.4866
  488SOL     OW 1598   1.586   2.854   3.764 -0.1921  0.4404  0.0612
  488SOL    HW1 1599   1.667   2.904   3.760  0.5431 -0.7478 -0.4377
  488SOL    HW2 1600   1.612   2.764   3.743 -1.4770 -0.1535  0.8794
  489SOL     OW 1601   0.908   2.011   2.627 -0.2644  0.1254  0.3550
  489SOL    HW1 1602   0.988   1.958   2.628 -0.7181 -0.5832  1.4765
  489SOL    HW2 1603   0.837   1.947   2.614 -0.5984  0.9079 -2.5998
  490SOL     OW 1604   0.253   1.781   1.793  0.5519  0.5871  0.3078
  490SOL    HW1 1605   0.251   1.711   1.729  1.1945  2.2683 -1.6565
  490SOL    HW2 1606   0.163   1.787   1.825 -0.4014  1.2554 -2.2729
  491SOL     OW 1607   1.594   0.584   0.993  0.0441 -0.1402 -0.2634
  491SOL    HW1 1608   1.650   0.554   0.922  0.4884  0.8029 -0.3285
  491SOL    HW2 1609   1.540   0.653   0.954 -1.3467 -1.1917 -0.2626
  492SOL     OW 1610   2.047   2.201   2.791 -0.3923  0.3895 -0.0848
  492SOL    HW1 1611   2.011   2.141   2.726 -0.7680 -2.9206  2.8527
  492SOL    HW2 1612   1.970   2.240   2.833 -0.3123 -0.3454  0.7684
  493SOL     OW 1613   0.150   1.444   0.885 -0.6139 -0.4019  0.8479
  493SOL    HW1 1614   0.180   1.388   0.813 -2.0198 -2.3624  1.6858
  493SOL    HW2 1615   0.081   1.498   0.846  1.1763  1.3442 -0.1253
  494SOL     OW 1616   1.061   2.585   2.822  0.4145 -0.3339 -0.3892
  494SOL    HW1 1617   1.094   2.545   2.902  1.6231  2.8661  0.9092
  494SOL    HW2 1618   1.125   2.561   2.755  1.6572  0.2200  0.5635
  495SOL     OW 1619   1.383   0.595  -0.021  0.0747  0.1598  0.1213
  495SOL    HW1 1620   1.418   0.589   0.068  0.4217 -0.7443 -0.0595
  495SOL    HW2 1621   1.295   0.559  -0.014  0.7951 -1.8233 -0.2397
  496SOL     OW 1622   1.829   2.356   2.838 -0.0296 -0.4254 -0.5469
  496SOL    HW1 1623   1.825   2.378   2.745 -1.5462  0.9325 -0.2221
  496SOL    HW2 1624   1.755   2.404   2.876 -0.2398 -1.9975  1.1497
  497SOL     OW 1625   0.535   2.254   3.228  0.1914 -0.1370  0.3068
  497SOL    HW1 1626   0.565   2.165   3.209 -1.3133 -0.4712 -0.7358
  497SOL    HW2 1627   0.446   2.242   3.261 -0.2060  1.0092 -0.3032
  498SOL     OW 1628   1.298   2.994   2.764 -0.0396 -0.7693  0.0895
  498SOL    HW1 1629   1.256   3.065   2.814 -0.7643  0.0740 -1.6079
  498SOL    HW2 1630   1.299   2.920   2.824 -1.9351 -0.1522  0.9910
  499SOL     OW 1631   0.126   1.045   2.430  0.6329 -0.0980  0.1894
  499SOL    HW1 1632   0.159   1.094   2.506 -0.5881  0.7734  0.1856
  499SOL    HW2 1633   0.174   1.082   2.356 -1.9293  2.9737 -0.1740
  500SOL     OW 1634   1.258   2.276   3.630  0.0763  0.6545 -0.4466
  500SOL    HW1 1635   1.290   2.362   3.604 -1.0725  0.9213 -1.0610
  500SOL    HW2 1636   1.305   2.256   3.711  1.1639  1.3649 -0.8817
  501SOL     OW 1637   1.216   0.854   0.683 -0.5546  0.1426 -0.2553
  501SOL    HW1 1638   1.239   0.798   0.609  2.9744 -0.3777  1.0503
  501SOL    HW2 1639   1.166   0.797   0.741 -1.6523 -0.0064 -1.2994
  502SOL     OW 1640   2.498   2.498   0.409 -0.4983  0.7062  1.2876
  502SOL    HW1 1641   2.528   2.548   0.484 -1.2527  0.2896  1.8825
  502SOL    HW2 1642   2.549   2.532   0.335  0.1964  1.1638  1.9706
  503SOL     OW 1643   2.144   3.615   2.275  0.6644  0.5951  0.2526
  503SOL    HW1 1644   2.209   3.677   2.307  0.4872  2.2229 -2.2892
  503SOL    HW2 1645   2.175   3.589   2.188 -1.3422  0.3021 -0.4307
  504SOL     OW 1646   1.632   2.565   0.692  0.4791  0.6230  0.4674
  504SOL    HW1 1647   1.627   2.469   0.691 -0.3301  0.6559  0.4366
  504SOL    HW2 1648   1.650   2.589   0.601  1.1229  0.4836  0.5566
  505SOL     OW 1649   0.180   1.294   0.617 -0.1126  0.1718  0.8002
  505SOL    HW1 1650   0.189   1.377   0.571  0.2499  0.3048  1.1013
  505SOL    HW2 1651   0.255   1.242   0.587 -1.6601 -1.0002 -1.2959
  506SOL     OW 1652   2.275   3.354   2.475 -0.2488 -0.2576 -0.4060
  506SOL    HW1 1653   2.208   3.340   2.408  1.0148  0.2674 -1.8329
  506SOL    HW2 1654   2.231   3.407   2.542 -1.6044 -0.9894 -0.6723
  507SOL     OW 1655   2.877   3.018   0.901  0.4057 -0.1337  0.4085
  507SOL    HW1 1656   2.784   3.036   0.914  0.2996 -0.2162 -0.1760
  507SOL    HW2 1657   2.908   2.983   0.984 -0.5551 -2.0277  0.0208
  508SOL     OW 1658   0.322   1.177   1.065  0.6509 -0.2201  0.3470
  508SOL    HW1 1659   0.298   1.139   0.981  0.4035 -0.6971  0.6269
  508SOL    HW2 1660   0.412   1.209   1.053 -0.5509  3.0198 -1.2017
  509SOL     OW 1661   1.941   2.987   3.821  0.1446 -0.7431 -0.3510
  509SOL    HW1 1662   2.032   3.011   3.838  0.2468 -1.5660  0.3251
  509SOL    HW2 1663   1.913   3.047   3.752  1.6612 -1.4903 -1.6568
  510SOL     OW 1664   2.940   2.329   3.159  0.4292  0.4760  0.1068
  510SOL    HW1 1665   2.984   2.317   3.243 -2.9005 -0.4712  1.8940
  510SOL    HW2 1666   2.900   2.416   3.165 -0.4996  0.0776 -0.1399
  511SOL     OW 1667   1.151   3.541   2.964  0.0840 -0.4307  0.6689
  511SOL    HW1 1668   1.103   3.616   2.931 -0.4149 -0.1921  1.8852
  511SOL    HW2 1669   1.243   3.563   2.950 -0.1118 -0.6993 -1.2598
  512SOL     OW 1670   1.037   2.424   0.187 -0.7567  0.4514 -0.0185
  512SOL    HW1 1671   1.040   2.484   0.261  0.3827 -0.3289  0.5920
  512SOL    HW2 1672   1.016   2.339   0.225  2.2443 -0.4593 -0.1912
  513SOL     OW 1673   3.265   2.181   0.369  0.0286 -0.3840  0.8680
  513SOL    HW1 1674   3.222   2.183   0.455  0.6419 -0.1238  1.1736
  513SOL    HW2 1675   3.236   2.260   0.325  0.5277  0.0109  1.2421
  514SOL     OW 1676   2.989   1.356   0.403  0.4742  0.0418  0.0807
  514SOL    HW1 1677   3.044   1.278   0.416  0.3098  0.3108  3.1081
  514SOL    HW2 1678   3.035   1.426   0.449  0.1970  1.6005 -1.8828
  515SOL     OW 1679   2.780   2.593   3.141 -0.3401  0.3039  0.7468
  515SOL    HW1 1680   2.834   2.630   3.211 -0.6612 -2.8852  2.8882
  515SOL    HW2 1681   2.715   2.661   3.122  2.9245  3.4039 -0.3893
  516SOL     OW 1682   3.449   2.331   3.693  0.1489  0.4875 -0.5721
  516SOL    HW1 1683   3.365   2.299   3.660 -0.3533 -1.2307  2.0354
  516SOL    HW2 1684   3.513   2.272   3.653 -0.1940 -0.0410 -0.3624
  517SOL     OW 1685   1.086   3.013   1.923  0.3199  0.0582  0.4859
  517SOL    HW1 1686   1.171   3.021   1.881  1.3255  1.3639  2.5929
  517SOL    HW2 1687   1.106   2.983   2.012 -1.5740 -1.0459  0.6029
  518SOL     OW 1688   0.260   2.187   3.292  0.5726 -0.0987 -0.3968
  518SOL    HW1 1689   0.246   2.103   3.246  1.0548  0.3289 -1.3492
  518SOL    HW2 1690   0.190   2.190   3.357  0.4089 -1.1426 -0.5064
  519SOL     OW 1691   0.154   2.193   3.598  0.3361  0.0471 -0.0568
  519SOL    HW1 1692   0.217   2.225   3.534  0.3099  0.9201  0.3500
  519SOL    HW2 1693   0.162   2.252   3.672 -1.4578  0.6107 -0.2678
  520SOL     OW 1694   2.046   0.442   3.006 -0.1520 -0.8474  0.0447
  520SOL    HW1 1695   2.001   0.505   2.950 -0.5424 -0.6486  0.5696
  520SOL    HW2 1696   1.978   0.410   3.065  0.1501 -1.3991  0.1053
  521SOL     OW 1697   1.621   2.542   2.998  0.5150 -0.4182  0.3190
  521SOL    HW1 1698   1.649   2.623   3.040 -1.8230  0.6345 -0.0128
  521SOL    HW2 1699   1.569   2.497   3.064 -2.2180  0.7010 -0.9194
  522SOL     OW 1700   1.777   2.197   1.166  0.6867 -0.6230  0.4754
  522SOL    HW1 1701   1.728   2.250   1.228  0.3514 -0.3218 -0.0393
  522SOL    HW2 1702   1.869   2.211   1.189  0.5835 -0.0919  0.5623
  523SOL     OW 1703   3.719   3.728   2.923 -0.4375 -0.4653 -0.1887
  523SOL    HW1 1704   3.698   3.727   2.829  0.2691  2.6756 -0.4961
  523SOL    HW2 1705   3.637   3.753   2.965 -0.0733  1.0580 -0.3203
  524SOL     OW 1706   3.591  -0.000   2.445 -0.2771 -0.7780  0.2891
  524SOL    HW1 1707   3.645   0.022   2.369 -2.0964 -1.0934 -1.1786
  524SOL    HW2 1708   3.565   0.084   2.482 -0.7751 -0.5563 -0.5199
  525SOL     OW 1709   3.627   0.705   2.254  0.0769 -0.2688  0.1769
  525SOL    HW1 1710   3.589   0.742   2.174  0.4021  0.9201  0.5493
  525SOL    HW2 1711   3.663   0.781   2.300  0.8764 -1.0873  0.9207
  526SOL     OW 1712   0.514   0.409   1.225  0.8476 -0.5824 -0.3619
  526SOL    HW1 1713   0.565   0.419   1.145 -2.2749 -1.3782 -2.6781
  526SOL    HW2 1714   0.462   0.489   1.231  1.3973 -0.3085  1.2128
  527SOL     OW 1715   1.417   3.785   0.354 -0.3329  0.1528 -0.4696
  527SOL    HW1 1716   1.401   3.698   0.319  3.1880 -1.0872  0.6363
  527SOL    HW2 1717   1.433   3.840   0.277 -1.0892 -0.4911 -1.0998
  528SOL     OW 1718   0.055   1.247   0.359 -0.2286 -0.1043  0.5906
  528SOL    HW1 1719   0.085   1.245   0.450  0.6028 -2.3969  0.3289
  528SOL    HW2 1720   0.117   1.304   0.315  0.6690 -0.6731  1.0778
  529SOL     OW 1721   3.340   1.650   0.131  0.4683  0.3373  0.4914
  529SOL    HW1 1722   3.341   1.699   0.049 -1.5500  1.7292  1.1986
  529SOL    HW2 1723   3.266   1.590   0.122 -0.0662  0.8244  1.4247
  530SOL     OW 1724   1.408   1.313   3.652  0.4576  0.4110 -0.0920
  530SOL    HW1 1725   1.452   1.242   3.699  2.1822  1.9833  0.8172
  530SOL    HW2 1726   1.348   1.351   3.716 -1.1027 -0.6902 -0.8348
  531SOL     OW 1727   3.418   1.368   3.888 -1.1484  0.1029 -0.3197
  531SOL    HW1 1728   3.453   1.338   3.804 -0.8585 -0.6622  0.0688
  531SOL    HW2 1729   3.412   1.289   3.942  1.4554  0.9234  1.3868
  532SOL     OW 1730   2.123   2.877   3.501  0.3353 -0.6600 -0.2231
  532SOL    HW1 1731   2.095   2.816   3.433 -2.3050  0.4819 -0.3050
  532SOL    HW2 1732   2.197   2.834   3.543  0.1163 -2.7863 -1.8297
  533SOL     OW 1733   2.818   3.590   2.597 -0.1338 -0.1924  0.6945
  533SOL    HW1 1734   2.783   3.679   2.602 -2.0691 -0.8043 -0.6237
  533SOL    HW2 1735   2.899   3.599   2.547 -1.2279  0.6751 -1.0577
  534SOL     OW 1736   2.408   1.864   2.968 -0.1660 -0.0872 -0.1752
  534SOL    HW1 1737   2.426   1.904   2.882  0.6420  1.2070  0.5632
  534SOL    HW2 1738   2.343   1.922   3.007  0.7059  0.2940  0.7452
  535SOL     OW 1739   0.899   2.814   2.203  0.4874  0.0225 -0.3063
  535SOL    HW1 1740   0.867   2.774   2.122 -0.6851  0.2696  0.0216
  535SOL    HW2 1741   0.928   2.739   2.256 -2.3128 -0.5530  0.5785
  536SOL     OW 1742   0.808   3.526   2.238 -0.2478  0.0354 -0.1420
  536SOL    HW1 1743   0.893   3.569   2.232 -1.2501  2.0131 -1.1553
  536SOL    HW2 1744   0.798   3.480   2.156  0.1939 -0.9293  0.3349
  537SOL     OW 1745   3.036   3.564   2.172 -0.2623 -0.7149 -0.3104
  537SOL    HW1 1746   2.969   3.546   2.106  0.6438  1.3677 -1.9261
  537SOL    HW2 1747   3.115   3.582   2.121  1.0793 -1.2381  1.4681
  538SOL     OW 1748   3.870   2.092   1.275 -0.0298 -0.3555  0.2840
  538SOL    HW1 1749   3.818   2.172   1.288  0.8732  0.2787  0.0502
  538SOL    HW2 1750   3.815   2.037   1.219 -0.2992  0.4648 -0.2801
  539SOL     OW 1751   3.384   0.038   0.196 -0.2781  0.3912 -0.2342
  539SOL    HW1 1752   3.436   0.115   0.217  1.4611 -1.2057  1.7793
  539SOL    HW2 1753   3.435  -0.036   0.231 -1.2021 -1.8509 -3.1507
  540SOL     OW 1754   0.899   1.028   3.668  0.2334 -0.5054 -0.6705
  540SOL    HW1 1755   0.851   1.027   3.586  1.7348 -1.9636 -1.5862
  540SOL    HW2 1756   0.913   0.936   3.690  2.2171 -0.1659 -0.2546
  541SOL     OW 1757   0.583   0.721   1.839 -0.1714  0.1793 -1.5099
  541SOL    HW1 1758   0.633   0.799   1.815  0.1436  1.4658  2.5257
  541SOL    HW2 1759   0.496   0.754   1.863 -1.3721 -1.3413 -3.4246
  542SOL     OW 1760   1.494   0.093   2.993 -0.8273 -0.0302 -0.2174
  542SOL    HW1 1761   1.503   0.189   2.994  0.8308 -0.1530 -0.7747
  542SOL    HW2 1762   1.406   0.078   3.028 -1.1993  1.6984 -0.2722
  543SOL     OW 1763   1.557   0.537   2.324  0.2024 -0.2547  0.4128
  543SOL    HW1 1764   1.589   0.581   2.402 -1.0608 -0.9715  1.3704
  543SOL    HW2 1765   1.632   0.489   2.290  0.7403  0.0012  1.2210
  544SOL     OW 1766   2.077   3.307   3.035 -0.2188  0.9306  0.4019
  544SOL    HW1 1767   2.078   3.270   2.947  0.0580  2.1222 -0.1104
  544SOL    HW2 1768   1.986   3.332   3.050 -0.9036 -1.9205  1.6381
  545SOL     OW 1769   0.398   3.894   0.662 -0.0045 -0.4153 -0.1234
  545SOL    HW1 1770   0.485   3.929   0.643 -0.4934 -0.0447 -1.7918
  545SOL    HW2 1771   0.355   3.888   0.577 -2.7663  2.4174  0.8870
  546SOL     OW 1772   3.753   0.442   1.423 -0.2873  0.3808 -0.1041
  546SOL    HW1 1773   3.666   0.479   1.408 -1.0874 -1.3240  0.1589
  546SOL    HW2 1774   3.813   0.512   1.398 -1.7215  1.9433  0.6120
  547SOL     OW 1775   1.457   1.680   1.928  0.0798 -0.2575  0.5298
  547SOL    HW1 1776   1.502   1.637   1.855  0.1461 -0.4258  0.6720
  547SOL    HW2 1777   1.475   1.774   1.914 -0.2907 -0.2507  0.0705
  548SOL     OW 1778   3.237   1.320   3.626  0.3572  0.1686  0.4219
  548SOL    HW1 1779   3.193   1.239   3.650  1.7702 -0.9377 -0.5630
  548SOL    HW2 1780   3.169   1.387   3.632 -1.3144 -1.3695 -0.5051
  549SOL     OW 1781   2.714   2.105   2.859 -0.1922 -0.3778 -0.7477
  549SOL    HW1 1782   2.799   2.081   2.896 -0.4714 -0.7422 -0.3333
  549SOL    HW2 1783   2.690   2.186   2.905 -0.1881 -0.4170 -0.6763
  550SOL     OW 1784   2.843   3.438   3.117 -0.1415 -0.2254  0.0308
  550SOL    HW1 1785   2.918   3.381   3.132  2.8729  3.3394  0.0349
  550SOL    HW2 1786   2.790   3.428   3.196  0.5738 -2.4238  0.3061
  551SOL     OW 1787   3.607   2.527   0.229 -0.0281  0.3713  0.6258
  551SOL    HW1 1788   3.611   2.432   0.221  0.0941  0.4841 -1.2047
  551SOL    HW2 1789   3.531   2.543   0.285 -0.6188 -0.7990  0.2123
  552SOL     OW 1790   3.412   2.953   1.406 -0.1379 -0.2973 -0.1411
  552SOL    HW1 1791   3.387   2.863   1.428  2.0259 -1.1554 -0.9970
  552SOL    HW2 1792   3.506   2.957   1.422  0.0662  1.4126 -1.4661
  553SOL     OW 1793   2.359   1.687   1.356  0.1010 -0.0120  0.2586
  553SOL    HW1 1794   2.314   1.683   1.272  1.1932  1.1278 -0.4203
  553SOL    HW2 1795   2.304   1.637   1.415 -2.1993  1.5524 -0.4289
  554SOL     OW 1796   1.994   3.019   0.642 -0.4923 -0.2591 -0.6179
  554SOL    HW1 1797   1.934   3.022   0.717  0.4781 -0.7465  0.2089
  554SOL    HW2 1798   1.941   2.982   0.571 -0.9777 -1.4418  0.3126
  555SOL     OW 1799   0.790   2.463   0.462  0.2895 -0.8009  0.0489
  555SOL    HW1 1800   0.773   2.424   0.377  2.0830  0.3883 -0.9108
  555SOL    HW2 1801   0.709   2.511   0.483  0.3183  0.0704 -1.6690
  556SOL     OW 1802   0.815   3.164   2.565  0.8621  0.2285 -0.4379
  556SOL    HW1 1803   0.737   3.136   2.614  1.4791  0.4752  0.7256
  556SOL    HW2 1804   0.821   3.103   2.492  0.6375 -0.9868  0.5263
  557SOL     OW 1805   1.706   0.333   0.291  0.1018  0.0879 -0.2439
  557SOL    HW1 1806   1.738   0.321   0.201  1.1686 -1.2727  0.2882
  557SOL    HW2 1807   1.743   0.417   0.318 -2.1361  1.7178 -1.8156
  558SOL     OW 1808   3.155   2.007   3.359 -0.1047  0.3044  0.3661
  558SOL    HW1 1809   3.223   2.064   3.323  1.7599 -0.5865  2.2415
  558SOL    HW2 1810   3.163   2.017   3.454 -3.2482  0.8180  0.6804
  559SOL     OW 1811   3.942   2.823   3.124  0.6685 -0.2423  0.1722
  559SOL    HW1 1812   3.991   2.865   3.054  1.2065 -1.1788 -0.0318
  559SOL    HW2 1813   3.896   2.895   3.168 -1.8589  0.1248 -2.7502
  560SOL     OW 1814   0.479   3.798   1.024  0.3402  0.0882 -0.4290
  560SOL    HW1 1815   0.558   3.821   0.975  0.9606  1.6826  1.1727
  560SOL    HW2 1816   0.510   3.785   1.114 -1.2574  1.1341  0.3173
  561SOL     OW 1817   3.165   1.531   1.768 -0.4690  0.1353  0.7660
  561SOL    HW1 1818   3.206   1.489   1.844 -0.3599  0.3836  0.8459
  561SOL    HW2 1819   3.188   1.623   1.777  0.4542  0.0130 -0.1454
  562SOL     OW 1820   0.446   2.783   1.437 -0.2817 -0.2186 -0.3130
  562SOL    HW1 1821   0.393   2.821   1.367  0.8676  0.2769 -0.9379
  562SOL    HW2 1822   0.420   2.831   1.516 -0.8454 -0.0747 -0.5834
  563SOL     OW 1823   0.078   3.676   1.145  0.1483  0.2908  0.0858
  563SOL    HW1 1824   0.086   3.637   1.058  2.6215 -0.2751  0.4837
  563SOL    HW2 1825   0.125   3.760   1.138  1.2155 -0.1921  1.0606
  564SOL     OW 1826   2.630   3.109   2.064  0.0151 -0.4323  0.0535
  564SOL    HW1 1827   2.609   3.019   2.089  0.8907 -0.2540  1.5254
  564SOL    HW2 1828   2.713   3.128   2.108 -0.8272  1.5465  0.8965
  565SOL     OW 1829   1.304   3.138   3.244 -0.3431  0.1686 -0.0997
  565SOL    HW1 1830   1.306   3.233   3.231  1.5019  0.2066  0.1418
  565SOL    HW2 1831   1.266   3.103   3.164  1.9415  0.9624 -1.6325
  566SOL     OW 1832   0.945   3.562   3.393  0.6980 -0.3947  0.9676
  566SOL    HW1 1833   0.854   3.585   3.374 -0.1441 -2.3284  2.2298
  566SOL    HW2 1834   0.991   3.645   3.398 -1.0052  0.6396  0.2942
  567SOL     OW 1835   3.397   3.143   3.582  0.2009  0.2507 -0.7063
  567SOL    HW1 1836   3.399   3.047   3.590  0.4256  0.0291 -2.8342
  567SOL    HW2 1837   3.306   3.166   3.602  0.6908 -0.0536  2.4070
  568SOL     OW 1838   3.745   1.749   0.290 -0.3083 -0.4082 -0.5741
  568SOL    HW1 1839   3.729   1.775   0.199  2.8351 -0.4236 -1.2302
  568SOL    HW2 1840   3.657   1.745   0.329 -1.6744  0.8274 -3.2339
  569SOL     OW 1841   2.508   1.660  -0.013 -0.1524 -0.0069  0.1021
  569SOL    HW1 1842   2.458   1.678   0.066 -0.0355 -1.4904  0.5292
  569SOL    HW2 1843   2.545   1.745  -0.037  1.8429  0.0897  3.0164
  570SOL     OW 1844   3.290   1.735   3.837 -0.2122 -0.1245  0.0447
  570SOL    HW1 1845   3.285   1.690   3.752 -0.6955 -0.0186  0.0097
  570SOL    HW2 1846   3.231   1.810   3.826 -0.0678  0.0350  0.3859
  571SOL     OW 1847   2.454   2.714   0.196 -0.4169 -0.8837  0.1944
  571SOL    HW1 1848   2.450   2.790   0.253 -0.2687 -0.5633 -0.2209
  571SOL    HW2 1849   2.362   2.687   0.185 -0.5720 -0.0647 -0.5921
  572SOL     OW 1850   2.498   0.631   2.369 -0.6784 -0.1346 -0.0487
  572SOL    HW1 1851   2.504   0.678   2.453  0.0363  1.1857 -0.8077
  572SOL    HW2 1852   2.454   0.692   2.310  0.4151 -0.3241 -1.1094
  573SOL     OW 1853   1.811   0.394   3.180  0.1044  0.6550 -0.4346
  573SOL    HW1 1854   1.761   0.322   3.219 -1.1593 -0.3394 -3.5703
  573SOL    HW2 1855   1.746   0.461   3.161  0.6034  0.9286 -1.2026
  574SOL     OW 1856   1.709   1.185   3.617 -0.4983 -0.0893 -0.2353
  574SOL    HW1 1857   1.700   1.246   3.691  0.3754  2.2747 -1.9324
  574SOL    HW2 1858   1.756   1.110   3.653 -0.4997  0.7723  1.6988
  575SOL     OW 1859   0.417   3.164   3.093 -0.2099  0.0236 -0.0388
  575SOL    HW1 1860   0.443   3.221   3.166  2.2445 -0.4892 -0.4265
  575SOL    HW2 1861   0.329   3.135   3.116  0.2995  0.2412  2.5189
  576SOL     OW 1862   2.151   2.465   1.463 -0.1306  0.2852 -0.0438
  576SOL    HW1 1863   2.171   2.460   1.556  2.3453 -0.0501 -0.5380
  576SOL    HW2 1864   2.141   2.559   1.446 -1.9500  0.2781  0.7666
  577SOL     OW 1865   3.442   0.367   0.705  0.5213  0.1197  0.6293
  577SOL    HW1 1866   3.441   0.372   0.610 -1.0496  1.1878  0.6745
  577SOL    HW2 1867   3.412   0.453   0.735  1.5344  0.0051  2.1065
  578SOL     OW 1868   0.710   0.666   3.347 -0.2256  0.4067 -0.3733
  578SOL    HW1 1869   0.726   0.636   3.437  0.6271  1.1136 -0.2740
  578SOL    HW2 1870   0.772   0.738   3.335 -1.8277  1.7840 -0.7731
  579SOL     OW 1871   3.331   2.772   1.172  0.5117  0.7405  0.2055
  579SOL    HW1 1872   3.409   2.717   1.160 -0.6657 -1.5952  2.3061
  579SOL    HW2 1873   3.359   2.841   1.232  1.4558  1.2024 -0.7232
  580SOL     OW 1874   3.698   2.309   1.665  0.7447 -0.1251  0.5136
  580SOL    HW1 1875   3.647   2.339   1.740  0.1812 -1.0787  0.5119
  580SOL    HW2 1876   3.634   2.294   1.595  1.4373  2.9175 -0.9551
  581SOL     OW 1877   2.193   0.801   2.229  0.0382 -0.3148  0.2305
  581SOL    HW1 1878   2.131   0.873   2.244  0.4404  0.0808  0.0077
  581SOL    HW2 1879   2.257   0.809   2.299 -0.6886 -1.3199  1.0501
  582SOL     OW 1880   3.134   0.539   0.559 -0.5129 -0.4070 -0.4675
  582SOL    HW1 1881   3.190   0.553   0.636 -1.7573 -0.2758  0.4398
  582SOL    HW2 1882   3.196   0.521   0.488  0.6106 -2.6904  0.9642
  583SOL     OW 1883   0.397   0.348   2.034  0.2946 -0.5094 -0.0391
  583SOL    HW1 1884   0.445   0.294   1.971 -0.2988 -1.7753  0.5514
  583SOL    HW2 1885   0.312   0.305   2.041 -0.1581  0.4689  0.5265
  584SOL     OW 1886   0.272   0.281   2.746 -0.0315 -0.4696 -0.0793
  584SOL    HW1 1887   0.241   0.370   2.765  1.5073 -0.5719  4.0695
  584SOL    HW2 1888   0.209   0.224   2.789 -0.3149 -1.3921 -1.6374
  585SOL     OW 1889   3.514   3.603   2.216  0.1159 -0.1051 -0.3278
  585SOL    HW1 1890   3.431   3.554   2.214  1.3736 -2.5317  1.6722
  585SOL    HW2 1891   3.488   3.694   2.206 -2.9413 -0.6481  1.3735
  586SOL     OW 1892   0.174   1.203   2.662 -0.0992  0.0082  0.6245
  586SOL    HW1 1893   0.161   1.282   2.716  1.0956  1.4047 -1.0191
  586SOL    HW2 1894   0.259   1.169   2.690 -0.3945 -0.4462  0.9911
  587SOL     OW 1895   2.106   1.442   0.886 -0.1325  0.3114  0.2140
  587SOL    HW1 1896   2.154   1.444   0.968 -0.8813  1.0028  0.6553
  587SOL    HW2 1897   2.051   1.520   0.889 -0.2729  0.2675 -0.8814
  588SOL     OW 1898   0.735   1.378   2.101 -0.4274  0.1832  0.5872
  588SOL    HW1 1899   0.809   1.320   2.081  1.1185  1.3379  2.6025
  588SOL    HW2 1900   0.771   1.466   2.094 -1.4990  0.7759  1.9608
  589SOL     OW 1901   3.746   0.166   1.030 -0.7040 -0.0868  0.4903
  589SOL    HW1 1902   3.817   0.211   1.076  1.3469  1.0687 -3.3051
  589SOL    HW2 1903   3.721   0.094   1.088  3.1111 -0.1415  2.4009
  590SOL     OW 1904   1.881   1.562   3.675 -0.3672  0.1090 -0.1426
  590SOL    HW1 1905   1.954   1.585   3.733 -0.8675 -0.0265  0.5542
  590SOL    HW2 1906   1.809   1.618   3.704 -0.8697 -0.5642 -0.0721
  591SOL     OW 1907   1.800   1.602   2.110 -0.4813 -0.2098 -0.5652
  591SOL    HW1 1908   1.747   1.676   2.137  1.1449  0.9564 -0.4433
  591SOL    HW2 1909   1.867   1.639   2.053  2.0043 -1.0737  1.5733
  592SOL     OW 1910   3.139   3.966   0.497 -0.4084 -0.2348  0.7122
  592SOL    HW1 1911   3.057   3.944   0.542 -0.7105  0.2604  0.4206
  592SOL    HW2 1912   3.207   3.948   0.561 -0.7468 -0.6408  0.9673
  593SOL     OW 1913   2.072   0.527   1.795  0.0596 -0.0470 -0.0406
  593SOL    HW1 1914   2.103   0.593   1.858  2.6596  1.4516 -2.6031
  593SOL    HW2 1915   2.021   0.577   1.732 -0.5347 -1.0736 -0.3906
  594SOL     OW 1916   2.230   1.613   1.855 -0.1337 -0.3858 -0.0374
  594SOL    HW1 1917   2.144   1.644   1.881  0.8813  1.7093  1.0497
  594SOL    HW2 1918   2.281   1.692   1.838  1.5570 -1.5505 -0.8007
  595SOL     OW 1919   1.776   1.104   2.414 -0.1202 -0.2421 -0.1473
  595SOL    HW1 1920   1.725   1.184   2.424 -1.9332 -1.1967 -1.3555
  595SOL    HW2 1921   1.827   1.119   2.334 -1.4923 -0.7880 -1.1552
  596SOL     OW 1922   3.527   2.059   0.034  0.4431  0.0266 -0.3338
  596SOL    HW1 1923   3.432   2.052   0.020  0.3725  1.2833 -0.5889
  596SOL    HW2 1924   3.560   1.972   0.012 -0.4032  0.1599 -2.4351
  597SOL     OW 1925   1.578   0.668   1.251  1.0654  0.6849  0.0701
  597SOL    HW1 1926   1.629   0.616   1.189 -0.9471 -0.6619 -0.5287
  597SOL    HW2 1927   1.539   0.737   1.198 -1.2205 -0.8708 -0.4119
  598SOL     OW 1928   2.454   2.408   1.117  0.3926 -0.0729  0.2473
  598SOL    HW1 1929   2.411   2.328   1.148  1.4689 -1.6778 -2.0718
  598SOL    HW2 1930   2.545   2.400   1.146  0.9718 -0.7174 -1.5713
  599SOL     OW 1931   1.627   2.244   1.697  0.3094  0.3927 -0.2662
  599SOL    HW1 1932   1.655   2.154   1.715  0.9717  1.1374  3.2818
  599SOL    HW2 1933   1.532   2.240   1.691  0.3503 -0.5895 -0.2992
  600SOL     OW 1934   2.940   1.454   1.505 -0.1759  0.4550  0.0626
  600SOL    HW1 1935   2.950   1.383   1.568  0.6736 -0.2156 -0.8145
  600SOL    HW2 1936   2.951   1.413   1.419 -0.5614  1.4862 -0.5046
  601SOL     OW 1937   0.267   1.397   2.467 -0.0409 -0.1998  0.4685
  601SOL    HW1 1938   0.218   1.358   2.540  1.2416  0.8488  1.9537
  601SOL    HW2 1939   0.240   1.346   2.390 -2.5529 -0.4043  1.3911
  602SOL     OW 1940   1.849   1.489   2.640 -0.1549  0.4762  0.7695
  602SOL    HW1 1941   1.858   1.470   2.733 -0.2063 -1.2785  0.4583
  602SOL    HW2 1942   1.921   1.440   2.599  0.9997  2.6699  0.0069
  603SOL     OW 1943   2.143   2.254   0.194  0.1121  0.1725  0.4039
  603SOL    HW1 1944   2.089   2.184   0.159  1.6352 -1.1457  0.5762
  603SOL    HW2 1945   2.083   2.328   0.204 -1.4680 -0.9913 -0.0782
  604SOL     OW 1946   1.895   1.312   3.167  0.0380  0.4829 -0.3233
  604SOL    HW1 1947   1.829   1.372   3.133 -2.0719 -1.6114 -0.1430
  604SOL    HW2 1948   1.908   1.248   3.096 -0.0344 -0.5725  0.5885
  605SOL     OW 1949   3.468   1.445   1.340 -0.5337  0.0367 -0.5582
  605SOL    HW1 1950   3.513   1.369   1.304 -1.4519 -0.0238 -1.6332
  605SOL    HW2 1951   3.384   1.411   1.370 -0.2327  0.3068  0.6321
  606SOL     OW 1952   2.647   2.185   3.847  0.4427 -0.1933 -0.2476
  606SOL    HW1 1953   2.566   2.141   3.874  0.0946  1.2776  1.3537
  606SOL    HW2 1954   2.623   2.231   3.767  0.1173 -0.9451 -0.5896
  607SOL     OW 1955   3.647   1.712   3.332  0.4516  0.0438 -0.5679
  607SOL    HW1 1956   3.575   1.681   3.387  0.4136  1.0153 -0.0535
  607SOL    HW2 1957   3.688   1.632   3.300  0.6533 -0.5696  1.1116
  608SOL     OW 1958   2.748   3.256   0.479  0.0543  0.0386  0.1456
  608SOL    HW1 1959   2.696   3.318   0.530 -0.7164 -2.4641  2.6234
  608SOL    HW2 1960   2.833   3.254   0.523  0.7200  0.6303 -1.0528
  609SOL     OW 1961   3.810   0.917   1.038 -0.7174  0.1543  0.4711
  609SOL    HW1 1962   3.774   1.005   1.036  0.5069  0.7380  2.0635
  609SOL    HW2 1963   3.901   0.927   1.009 -1.0940 -0.9278 -1.2540
  610SOL     OW 1964   3.858   0.556   0.229  0.5444  0.2110  0.0547
  610SOL    HW1 1965   3.842   0.563   0.135 -1.4558  0.4418  0.3638
  610SOL    HW2 1966   3.776   0.585   0.269  2.4836  3.6403  1.9820
  611SOL     OW 1967   1.486   2.964   2.305  0.1050 -0.1931  0.3342
  611SOL    HW1 1968   1.444   2.951   2.390 -1.5180 -2.8497 -0.7638
  611SOL    HW2 1969   1.557   2.901   2.304  1.8456  1.6565  0.6616
  612SOL     OW 1970   0.744   2.686   3.729  0.6211 -0.3476  0.3114
  612SOL    HW1 1971   0.668   2.678   3.671  0.1904 -0.6933  0.9175
  612SOL    HW2 1972   0.818   2.699   3.669  0.2840 -1.3551 -0.3605
  613SOL     OW 1973   2.368   1.611   3.229  0.0784 -0.0017 -0.3069
  613SOL    HW1 1974   2.422   1.612   3.150 -0.4405 -1.0243 -0.6931
  613SOL    HW2 1975   2.325   1.526   3.227 -2.4058  1.1964 -0.5672
  614SOL     OW 1976   0.435   3.711   1.788  0.0671  0.3123  0.4515
  614SOL    HW1 1977   0.385   3.792   1.780 -0.5456  0.0133  1.1892
  614SOL    HW2 1978   0.449   3.683   1.698 -0.3843  0.8308  0.2119
  615SOL     OW 1979   1.392   2.651   3.328 -0.4316  0.1627  0.3881
  615SOL    HW1 1980   1.407   2.590   3.256  0.7767 -0.4182  1.0846
  615SOL    HW2 1981   1.394   2.596   3.406  0.1370  1.0154  0.9940
  616SOL     OW 1982   3.883   1.360   2.368 -0.5124  0.0313 -0.2805
  616SOL    HW1 1983   3.818   1.340   2.436  0.4320  0.0001  0.6291
  616SOL    HW2 1984   3.871   1.290   2.303 -1.1443 -0.1746  0.0428
  617SOL     OW 1985   1.191   2.309   1.260  0.4169  0.4013 -0.1994
  617SOL    HW1 1986   1.102   2.339   1.275  0.4601 -0.3092  1.8881
  617SOL    HW2 1987   1.182   2.234   1.201 -0.2711  0.8126 -0.6234
  618SOL     OW 1988   0.928   3.731   0.575 -0.1042  0.5537  0.3446
  618SOL    HW1 1989   0.913   3.691   0.489  2.8589  2.9923 -1.5388
  618SOL    HW2 1990   1.004   3.685   0.610 -0.5526  0.3933  1.1306
  619SOL     OW 1991   1.069   3.868   0.285 -0.3566 -0.6266 -0.5144
  619SOL    HW1 1992   1.101   3.954   0.314 -0.3801 -1.5292  2.5691
  619SOL    HW2 1993   0.974   3.879   0.278 -0.2359 -0.0906 -1.3944
  620SOL     OW 1994   2.773   3.647   1.697 -0.0622 -0.0088 -0.2788
  620SOL    HW1 1995   2.726   3.696   1.764 -1.1485  0.2601 -1.1889
  620SOL    HW2 1996   2.839   3.708   1.664 -0.0484  0.1338  0.0145
  621SOL     OW 1997   0.784   2.637   2.650  0.0189  0.4743  0.1475
  621SOL    HW1 1998   0.822   2.652   2.564  0.7022  1.0907  0.5520
  621SOL    HW2 1999   0.826   2.701   2.707 -3.0220  2.5796  0.2467
  622SOL     OW 2000   3.767   0.282   0.497  0.0131 -0.3619  1.0494
  622SOL    HW1 2001   3.792   0.317   0.411  1.9972  0.5060  1.9199
  622SOL    HW2 2002   3.682   0.324   0.516  0.1331  0.3814  0.0488
  623SOL     OW 2003   1.505   2.106   2.580 -0.0069 -0.0747 -0.3002
  623SOL    HW1 2004   1.523   2.180   2.638 -0.3064 -0.5701  0.4311
  623SOL    HW2 2005   1.573   2.042   2.600 -0.5732 -0.5697  0.0720
  624SOL     OW 2006   1.899   2.315   0.949  0.3467 -0.4818 -0.1040
  624SOL    HW1 2007   1.849   2.301   0.868 -0.2589 -1.4325  0.4146
  624SOL    HW2 2008   1.832   2.315   1.018  1.0429 -1.9495  0.6209
  625SOL     OW 2009   0.587   0.928   0.059 -0.0555  0.3078 -0.3095
  625SOL    HW1 2010   0.577   0.861  -0.008  0.3705  0.1631 -0.2330
  625SOL    HW2 2011   0.501   0.971   0.064 -0.0949  0.3033 -0.9271
  626SOL     OW 2012   1.028   1.979   0.129 -0.2614 -0.3542  0.1064
  626SOL    HW1 2013   0.999   2.055   0.178  3.1079  0.5813  0.8937
  626SOL    HW2 2014   1.043   1.912   0.195 -0.8687 -0.9392 -0.3239
  627SOL     OW 2015   1.811   3.001   2.250  0.2524  0.2301  0.1082
  627SOL    HW1 2016   1.786   2.909   2.259 -2.4180  0.5709 -2.3289
  627SOL    HW2 2017   1.777   3.043   2.329  1.8760 -0.8574  1.4611
  628SOL     OW 2018   1.628   0.442   1.949  0.8726 -0.6710 -0.3516
  628SOL    HW1 2019   1.551   0.395   1.983  0.3385 -0.9891 -1.9247
  628SOL    HW2 2020   1.686   0.373   1.917  1.8972 -0.4380  0.8871
  629SOL     OW 2021   0.271   0.793   1.422  0.0982 -0.4784  0.0437
  629SOL    HW1 2022   0.358   0.781   1.461  0.9849  0.1732 -1.6010
  629SOL    HW2 2023   0.288   0.841   1.341 -2.1860  3.5653  1.6388
  630SOL     OW 2024   3.782   1.992   3.000  0.5046  0.2936 -0.2100
  630SOL    HW1 2025   3.712   2.004   2.936 -0.6116  1.4477  1.1716
  630SOL    HW2 2026   3.843   2.063   2.983  0.7928 -0.0722 -0.7164
  631SOL     OW 2027   0.075   2.486   0.406 -0.0025 -0.8810  0.2217
  631SOL    HW1 2028   0.074   2.391   0.394  1.2920 -0.9103  0.2037
  631SOL    HW2 2029  -0.017   2.512   0.400 -0.3815 -2.1348  0.2855
  632SOL     OW 2030   3.072   1.568   0.577  0.1569  0.5028 -0.3697
  632SOL    HW1 2031   3.055   1.615   0.658 -0.1597 -2.2413  1.2974
  632SOL    HW2 2032   3.165   1.544   0.582  0.4643  1.3739 -1.4663
  633SOL     OW 2033   0.755   3.237   0.117 -0.0574  0.6889  0.6226
  633SOL    HW1 2034   0.750   3.143   0.097 -2.6535  1.0795 -1.0732
  633SOL    HW2 2035   0.703   3.246   0.197  0.8594  0.6078  1.2398
  634SOL     OW 2036   0.990   3.388   2.566 -0.1187 -0.0592 -0.2475
  634SOL    HW1 2037   1.017   3.400   2.475  0.3111 -0.9782 -0.2546
  634SOL    HW2 2038   0.931   3.312   2.563 -0.5927  0.2888  0.1560
  635SOL     OW 2039   1.285   1.938   3.021  0.5735 -0.9881 -0.4255
  635SOL    HW1 2040   1.204   1.978   3.054 -0.2709 -2.5075 -0.5555
  635SOL    HW2 2041   1.344   1.939   3.096  1.3540  2.2499 -0.9269
  636SOL     OW 2042   2.889   3.532   2.852 -0.3631  0.3595 -0.0084
  636SOL    HW1 2043   2.822   3.506   2.915 -1.3882  3.9209  0.6096
  636SOL    HW2 2044   2.844   3.536   2.768  0.1256 -0.9998 -0.3598
  637SOL     OW 2045   3.467   0.561   1.450 -0.2786 -0.2433 -0.0593
  637SOL    HW1 2046   3.524   0.593   1.520 -1.0275  0.9696  0.0248
  637SOL    HW2 2047   3.393   0.522   1.496  0.1213 -1.1430 -0.1728
  638SOL     OW 2048   3.389   2.381   1.145 -0.1840  0.1203  0.3124
  638SOL    HW1 2049   3.367   2.416   1.058  2.6596 -0.6126 -0.8249
  638SOL    HW2 2050   3.321   2.315   1.162 -0.7842  0.2502 -1.3695
  639SOL     OW 2051   0.725   2.391   1.936 -0.0723  0.2992  0.2566
  639SOL    HW1 2052   0.721   2.302   1.971 -0.6393  1.3977  3.3248
  639SOL    HW2 2053   0.651   2.396   1.876 -0.2268 -1.1961  0.2775
  640SOL     OW 2054   3.136   2.669   0.474  0.4428  0.0164 -0.0143
  640SOL    HW1 2055   3.109   2.755   0.506 -1.2733 -0.7888  0.8343
  640SOL    HW2 2056   3.058   2.633   0.432  1.0484 -1.2342 -0.1166
  641SOL     OW 2057   0.627   0.072   0.642 -0.5132  0.1644 -0.2437
  641SOL    HW1 2058   0.630   0.164   0.668 -0.5077 -0.3270  1.6349
  641SOL    HW2 2059   0.711   0.036   0.671 -0.1140 -0.2475 -1.8225
  642SOL     OW 2060   0.703   1.539   0.241 -0.0567  0.4440 -0.2100
  642SOL    HW1 2061   0.787   1.509   0.206  0.6685 -1.3814  2.7628
  642SOL    HW2 2062   0.686   1.622   0.195  3.0584  0.5910 -1.3116
  643SOL     OW 2063   3.816   1.142   1.854  0.5020  0.6530  0.2713
  643SOL    HW1 2064   3.870   1.085   1.909  0.2855 -0.1741 -0.3481
  643SOL    HW2 2065   3.737   1.091   1.839  1.0170  0.3729 -1.7219
  644SOL     OW 2066   0.547   0.894   3.662  0.7657  0.5628  0.3488
  644SOL    HW1 2067   0.588   0.981   3.668 -1.8747  1.8930  0.7034
  644SOL    HW2 2068   0.510   0.891   3.574 -0.8783  0.7010  0.9927
  645SOL     OW 2069   2.575   0.227   1.833 -0.3117  0.9853  0.5020
  645SOL    HW1 2070   2.497   0.174   1.850  1.7215 -1.3650  3.5768
  645SOL    HW2 2071   2.543   0.299   1.778 -4.3054 -0.5558  0.4303
  646SOL     OW 2072   0.402   0.340   3.393  0.7143  0.0229 -0.2865
  646SOL    HW1 2073   0.440   0.252   3.400 -0.0789 -0.6204 -2.9028
  646SOL    HW2 2074   0.413   0.363   3.301  0.9448  2.7312  0.3386
  647SOL     OW 2075   0.122   1.405   2.825  0.3276 -0.0934 -0.5671
  647SOL    HW1 2076   0.211   1.434   2.808  0.5318 -0.3763  0.0012
  647SOL    HW2 2077   0.071   1.486   2.828  0.5839  0.0792 -0.7599
  648SOL     OW 2078   1.725   1.310   3.868 -0.4624  0.0995 -0.0990
  648SOL    HW1 2079   1.688   1.238   3.919  1.7603 -1.1242 -0.1393
  648SOL    HW2 2080   1.766   1.367   3.933 -0.1215  0.0492 -0.2687
  649SOL     OW 2081   1.592   0.803   2.944  0.2836 -1.0366  0.3887
  649SOL    HW1 2082   1.667   0.854   2.913 -0.4077 -0.8238 -1.0420
  649SOL    HW2 2083   1.630   0.738   3.003  1.3054  0.4606  1.4613
  650SOL     OW 2084   3.149   1.127   0.417  0.2315 -0.6057 -0.2624
  650SOL    HW1 2085   3.241   1.155   0.421  0.4002 -1.2595  0.6566
  650SOL    HW2 2086   3.120   1.127   0.508 -1.0809  0.8485 -0.6438
  651SOL     OW 2087   2.322   3.865   2.620  0.5202 -0.1526 -0.4250
  651SOL    HW1 2088   2.339   3.831   2.532 -0.5765  1.5332 -1.3299
  651SOL    HW2 2089   2.232   3.840   2.639  1.1408 -1.6075  0.7866
  652SOL     OW 2090   2.157   3.485   2.015  0.2698  0.0094 -0.2873
  652SOL    HW1 2091   2.146   3.513   1.924 -0.4290 -0.8851 -0.4989
  652SOL    HW2 2092   2.212   3.407   2.009  1.2930  0.6821  0.1855
  653SOL     OW 2093   0.991   2.395   1.836  0.3648  0.1060 -1.2416
  653SOL    HW1 2094   0.909   2.419   1.879  2.0546  0.4103  2.1395
  653SOL    HW2 2095   1.003   2.303   1.857  1.9590  0.6365  0.3514
  654SOL     OW 2096   2.015   2.295   0.493 -0.5627 -0.2808 -0.1273
  654SOL    HW1 2097   2.087   2.317   0.433 -0.9371  2.4066  0.2794
  654SOL    HW2 2098   2.056   2.244   0.563  0.5613 -0.4289 -0.8690
  655SOL     OW 2099   2.656   1.308   1.471 -0.2864 -0.2267 -0.7123
  655SOL    HW1 2100   2.620   1.268   1.392 -0.0061  0.3410 -1.1372
  655SOL    HW2 2101   2.606   1.389   1.482 -0.4411 -0.3834 -0.2030
  656SOL     OW 2102   1.324   1.193   0.792 -0.9779  0.3005  0.5288
  656SOL    HW1 2103   1.249   1.143   0.824 -0.7626 -0.3299  0.0777
  656SOL    HW2 2104   1.345   1.254   0.862 -0.4052 -1.1556  1.6671
  657SOL     OW 2105   0.115   2.509   2.638 -0.2746  0.5790  0.4733
  657SOL    HW1 2106   0.157   2.588   2.671  0.4995  0.0785  0.7157
  657SOL    HW2 2107   0.125   2.514   2.543  1.0032  0.1118  0.5677
  658SOL     OW 2108   2.174   0.798   2.771  0.2703 -0.3485  0.0266
  658SOL    HW1 2109   2.121   0.744   2.713 -0.0054 -0.3147  0.2455
  658SOL    HW2 2110   2.162   0.760   2.858  0.0072  0.1053  0.1972
  659SOL     OW 2111   1.591   1.149   1.268  0.5520 -0.3390  0.2924
  659SOL    HW1 2112   1.628   1.136   1.355  2.2514 -0.9604 -0.4821
  659SOL    HW2 2113   1.612   1.068   1.220 -2.8690 -1.2762  0.0839
  660SOL     OW 2114   2.645   0.609   1.885  0.5031  0.7873  0.1137
  660SOL    HW1 2115   2.626   0.676   1.951  0.3016  1.9575 -1.1008
  660SOL    HW2 2116   2.581   0.625   1.816 -0.6155 -1.6664  0.4410
  661SOL     OW 2117   2.169   2.602   2.836  0.0956 -0.2751 -0.2098
  661SOL    HW1 2118   2.106   2.660   2.879  1.7048  0.7733  0.8206
  661SOL    HW2 2119   2.198   2.651   2.759 -0.2533 -0.7218 -0.6334
  662SOL     OW 2120   1.044   2.947   1.359  0.5133  0.5156  0.5197
  662SOL    HW1 2121   1.027   2.859   1.393  2.3825  0.3077  1.0071
  662SOL    HW2 2122   1.048   2.936   1.264 -0.4122  0.3130  0.4911
  663SOL     OW 2123   3.517   3.083   2.907 -0.4477  0.0090  0.5232
  663SOL    HW1 2124   3.586   3.017   2.903 -1.4904 -1.0771 -0.6375
  663SOL    HW2 2125   3.489   3.083   2.998  0.8436  0.2394  0.9398
  664SOL     OW 2126   3.508   3.296   1.105 -0.2558 -0.0467  0.0598
  664SOL    HW1 2127   3.509   3.309   1.010  2.8867  0.0248 -0.0204
  664SOL    HW2 2128   3.533   3.382   1.140  0.4546 -0.5539  0.8216
  665SOL     OW 2129   0.816   0.466   3.867 -0.2955  0.1129 -0.4247
  665SOL    HW1 2130   0.760   0.517   3.925  2.4087  2.0858  0.6659
  665SOL    HW2 2131   0.820   0.517   3.786  0.9435  0.7834  0.0158
  666SOL     OW 2132   0.364   1.631   2.042 -0.1049  0.2721  0.0905
  666SOL    HW1 2133   0.428   1.578   2.091 -0.3248 -0.4593 -0.3920
  666SOL    HW2 2134   0.410   1.657   1.963  0.5029  2.0952  1.0043
  667SOL     OW 2135   3.412   1.939   0.441 -0.0200 -0.5237  0.2107
  667SOL    HW1 2136   3.340   1.996   0.413 -0.2590 -0.9235  0.0076
  667SOL    HW2 2137   3.488   1.998   0.446 -0.4516 -0.0111  0.8714
  668SOL     OW 2138   1.919   0.739   1.655  0.0558  0.1527 -0.2454
  668SOL    HW1 2139   1.861   0.764   1.583  0.8558 -1.2701 -1.4341
  668SOL    HW2 2140   2.001   0.714   1.612  0.2698 -1.5843  1.0774
  669SOL     OW 2141   2.346   3.126   3.712  0.3037 -0.2496  0.1675
  669SOL    HW1 2142   2.371   3.082   3.631  0.3033  1.2016 -0.6614
  669SOL    HW2 2143   2.319   3.213   3.684 -0.1234  0.1312  1.6930
  670SOL     OW 2144   0.768   1.525   0.817 -0.3136  0.0658  0.4778
  670SOL    HW1 2145   0.687   1.495   0.774 -0.3102 -1.7941  1.6653
  670SOL    HW2 2146   0.837   1.498   0.757 -0.4554 -0.1999  0.4293
  671SOL     OW 2147   2.088   1.301   1.463  0.3833 -0.2852  0.3818
  671SOL    HW1 2148   2.097   1.206   1.452  1.5664 -0.2050  0.4377
  671SOL    HW2 2149   2.118   1.338   1.380  2.2755  0.0840  1.1579
  672SOL     OW 2150   1.183   1.639   1.941 -0.6778 -0.8593  0.5624
  672SOL    HW1 2151   1.148   1.728   1.946 -0.8675 -0.9217  0.3977
  672SOL    HW2 2152   1.272   1.649   1.908 -0.8631 -0.7617  0.0795
  673SOL     OW 2153   0.119   1.605   3.495  0.1929  0.5489 -0.1952
  673SOL    HW1 2154   0.045   1.628   3.439  1.5502  0.7050 -1.9862
  673SOL    HW2 2155   0.124   1.510   3.490 -0.6801  0.4023  1.0448
  674SOL     OW 2156   1.607   1.998   3.895  0.0936  0.4482 -0.5363
  674SOL    HW1 2157   1.586   2.091   3.885 -2.5944 -0.2534 -2.3307
  674SOL    HW2 2158   1.537   1.963   3.950  1.1736 -0.5367  0.2670
  675SOL     OW 2159   3.198   2.614   0.737 -0.0064 -0.3231  0.3948
  675SOL    HW1 2160   3.171   2.645   0.650 -0.7594  0.4997  0.8966
  675SOL    HW2 2161   3.115   2.595   0.782  0.3183  0.2694  1.2784
  676SOL     OW 2162   1.889   3.968   2.150  0.3425 -0.7527 -0.3004
  676SOL    HW1 2163   1.844   3.950   2.068  0.2660  2.9014 -1.2650
  676SOL    HW2 2164   1.975   3.928   2.141  0.1885 -0.7579 -2.0043
  677SOL     OW 2165   0.435   3.022   0.091  0.1589 -0.6118  0.8903
  677SOL    HW1 2166   0.422   3.089   0.024 -1.3085 -2.0628 -0.3563
  677SOL    HW2 2167   0.349   3.011   0.132 -0.2251 -3.1798 -0.4094
  678SOL     OW 2168   0.187   0.654   1.694  0.0557 -0.5680  0.0543
  678SOL    HW1 2169   0.249   0.583   1.681  0.1087 -0.8160  1.5001
  678SOL    HW2 2170   0.175   0.692   1.607  3.2813  0.3845 -0.1066
  679SOL     OW 2171   2.699   1.956   1.102  0.1295  0.2588 -0.7917
  679SOL    HW1 2172   2.656   1.936   1.185  0.1134  0.1141 -0.8351
  679SOL    HW2 2173   2.636   2.008   1.054 -0.3839 -0.7704 -1.2572
  680SOL     OW 2174   1.666   1.699   3.387  0.5004 -0.5917  0.2687
  680SOL    HW1 2175   1.686   1.607   3.369  0.9956 -0.5135  0.4065
  680SOL    HW2 2176   1.608   1.696   3.463 -1.3719 -0.9100 -1.0930
  681SOL     OW 2177   1.620   1.086   0.833 -0.2467  0.1965 -0.0344
  681SOL    HW1 2178   1.555   1.051   0.772  1.6683 -0.8515 -1.6017
  681SOL    HW2 2179   1.635   1.175   0.803  1.6711 -0.7236 -2.1170
  682SOL     OW 2180   1.573   0.262   1.372 -0.4311  0.6912  0.3549
  682SOL    HW1 2181   1.531   0.331   1.424 -0.9194  2.2915 -2.0368
  682SOL    HW2 2182   1.661   0.254   1.410 -0.9611  1.3213  1.8122
  683SOL     OW 2183   1.375   3.358   0.967  0.1553  0.2812  0.0157
  683SOL    HW1 2184   1.297   3.364   1.022 -0.6456 -1.6333 -0.8033
  683SOL    HW2 2185   1.385   3.264   0.950  2.0958  0.5589 -0.6999
  684SOL     OW 2186   0.260  -0.000   0.413 -0.1493 -0.0562  0.2082
  684SOL    HW1 2187   0.332   0.057   0.387 -0.6646  0.8552  0.7116
  684SOL    HW2 2188   0.236  -0.047   0.333 -0.0133  0.7721 -0.3320
  685SOL     OW 2189   2.366   2.939   1.388  0.2120  0.1435  0.5052
  685SOL    HW1 2190   2.443   2.884   1.376 -1.2840 -1.9005 -0.2778
  685SOL    HW2 2191   2.373   3.005   1.319  0.5971 -0.8324 -0.4180
  686SOL     OW 2192   2.986   3.250   0.749  0.3118  0.9026  0.0948
  686SOL    HW1 2193   2.942   3.200   0.818 -1.3705  0.6393 -1.1099
  686SOL    HW2 2194   3.051   3.190   0.713 -1.1192 -0.1937 -0.7794
  687SOL     OW 2195   2.909   1.549   0.888 -0.1937  0.0003  0.5891
  687SOL    HW1 2196   2.823   1.538   0.846  0.1378  0.5045 -0.2525
  687SOL    HW2 2197   2.890   1.591   0.971 -0.6560  1.4663 -0.2259
  688SOL     OW 2198   0.519   2.533   2.373 -0.0179  0.0543  0.3262
  688SOL    HW1 2199   0.578   2.531   2.448 -1.1895 -1.3840  1.2717
  688SOL    HW2 2200   0.435   2.561   2.409 -0.9279 -1.8951 -0.1565
  689SOL     OW 2201   1.756   1.486   0.603  0.1323 -0.1458 -0.9157
  689SOL    HW1 2202   1.791   1.399   0.582 -1.0334 -0.8405 -0.1427
  689SOL    HW2 2203   1.714   1.475   0.689  2.0504  1.8059  0.3696
  690SOL     OW 2204   0.713   3.061   1.635 -0.3892 -0.0678  0.0364
  690SOL    HW1 2205   0.673   3.137   1.676 -0.0508 -0.0571  0.3514
  690SOL    HW2 2206   0.719   2.996   1.705  2.5799  0.8286  0.7571
  691SOL     OW 2207   2.882   3.198   3.539  0.1871  0.3832  0.0686
  691SOL    HW1 2208   2.900   3.203   3.445  1.1387  2.2317  0.3056
  691SOL    HW2 2209   2.809   3.258   3.552  0.4030  0.5326  0.5944
  692SOL     OW 2210   3.904   3.309   1.178  0.1202 -0.0570 -0.4996
  692SOL    HW1 2211   3.914   3.360   1.097 -0.6929 -0.2224 -0.7127
  692SOL    HW2 2212   3.981   3.252   1.181  0.2017  0.0204 -1.1092
  693SOL     OW 2213   2.127   1.782   3.092 -0.6227 -1.0601 -0.3950
  693SOL    HW1 2214   2.117   1.831   3.173 -1.1689 -1.3866 -0.2608
  693SOL    HW2 2215   2.181   1.707   3.117 -0.3338 -0.8745 -0.4566
  694SOL     OW 2216   3.264   0.587   0.040  0.4048  0.2548  0.3211
  694SOL    HW1 2217   3.298   0.676   0.045  1.2614 -0.0366 -0.0299
  694SOL    HW2 2218   3.246   0.563   0.131  1.1042  0.4446  0.5195
  695SOL     OW 2219   3.063   2.921   2.933  0.1909 -0.7066  1.1043
  695SOL    HW1 2220   3.026   2.959   3.012 -1.1595 -0.9018  0.6040
  695SOL    HW2 2221   3.001   2.945   2.864  1.7787  0.2069 -0.0773
  696SOL     OW 2222   2.144   1.986   0.417  0.5721  0.7252  0.4108
  696SOL    HW1 2223   2.179   2.034   0.493 -0.2927 -1.0151  1.9805
  696SOL    HW2 2224   2.049   1.991   0.427  0.3642  1.8114 -1.4978
  697SOL     OW 2225   2.301   1.069   3.209  0.6614  0.4265  0.2806
  697SOL    HW1 2226   2.365   1.051   3.277 -0.1870  0.7910  1.2026
  697SOL    HW2 2227   2.308   1.163   3.192  1.1110  0.2783 -0.3986
  698SOL     OW 2228   0.728   1.653   3.064 -0.3821 -0.3870 -0.1457
  698SOL    HW1 2229   0.716   1.653   3.159 -0.6455  0.4114 -0.1676
  698SOL    HW2 2230   0.738   1.561   3.041  2.8913 -0.4590  1.0408
  699SOL     OW 2231   0.190   1.947   3.805  0.0569  0.2294  0.6516
  699SOL    HW1 2232   0.210   1.914   3.717  0.9377  0.7276  0.6588
  699SOL    HW2 2233   0.096   1.933   3.814 -0.8260  3.3933 -1.7607
  700SOL     OW 2234   2.611   3.425   0.656  0.2747  0.2188 -0.1788
  700SOL    HW1 2235   2.571   3.460   0.577  0.2576 -0.5375 -0.5149
  700SOL    HW2 2236   2.688   3.480   0.671  1.1375 -0.5358 -1.5771
  701SOL     OW 2237   0.075   3.076   2.636  0.3639  0.6656 -0.1638
  701SOL    HW1 2238   0.143   3.144   2.644  0.6474  0.1468  2.5587
  701SOL    HW2 2239   0.098   3.030   2.555  1.7689  2.0635 -0.6225
  702SOL     OW 2240   2.202   3.946   0.032 -0.1721 -0.5971  0.3117
  702SOL    HW1 2241   2.247   4.027   0.055 -1.9579  0.8415 -1.0003
  702SOL    HW2 2242   2.264   3.899  -0.024  0.2332  0.7267 -0.3913
  703SOL     OW 2243   1.232   0.082   1.574  0.6006 -0.3763 -0.2116
  703SOL    HW1 2244   1.182   0.164   1.573  1.0854 -0.0691  0.3731
  703SOL    HW2 2245   1.165   0.013   1.574  0.1491  0.0286  1.1989
  704SOL     OW 2246   1.505   3.064   0.802 -0.7258  1.0353  0.2775
  704SOL    HW1 2247   1.419   3.030   0.828 -0.1369 -0.5106  0.2625
  704SOL    HW2 2248   1.567   2.997   0.830  0.4301  1.8429 -0.2922
  705SOL     OW 2249   2.472   3.615   2.667  0.9133 -0.0121  0.0554
  705SOL    HW1 2250   2.519   3.610   2.751 -1.7813 -0.9657  1.6276
  705SOL    HW2 2251   2.413   3.689   2.677 -1.0260 -1.4621 -0.0407
  706SOL     OW 2252   1.406   3.235   3.615  0.5240 -0.0568  0.3242
  706SOL    HW1 2253   1.449   3.312   3.577  1.3763  0.6798  2.6094
  706SOL    HW2 2254   1.312   3.252   3.603  0.7391  0.7473 -0.3000
  707SOL     OW 2255   0.388   3.270   2.323 -0.5920 -0.2144  0.4371
  707SOL    HW1 2256   0.394   3.356   2.365  0.7177 -0.4314  0.7541
  707SOL    HW2 2257   0.303   3.236   2.350 -2.0817  1.8029 -1.3544
  708SOL     OW 2258   2.277   2.268   0.886  0.2570  0.3444  0.4177
  708SOL    HW1 2259   2.211   2.334   0.868  0.2201  0.2434  0.1890
  708SOL    HW2 2260   2.340   2.276   0.814 -0.3132 -0.6035 -0.2027
  709SOL     OW 2261   0.321  -0.011   1.749  0.2790  0.2214  0.0959
  709SOL    HW1 2262   0.365   0.072   1.770  0.7072  0.3708 -1.2726
  709SOL    HW2 2263   0.229   0.005   1.770  0.4099  0.9404  0.1453
  710SOL     OW 2264   0.841   2.145   2.879  0.2706  0.3835  0.4178
  710SOL    HW1 2265   0.890   2.134   2.798 -1.8227 -0.2523 -0.8603
  710SOL    HW2 2266   0.831   2.056   2.914  0.7547  0.6024  1.1408
  711SOL     OW 2267   1.744   1.321   1.082 -0.1394  0.4174 -0.4408
  711SOL    HW1 2268   1.689   1.268   1.140  1.6957 -0.3175  0.7651
  711SOL    HW2 2269   1.819   1.264   1.062  0.2619  1.3975 -1.9053
  712SOL     OW 2270   0.697   2.437   0.906  0.2494  0.1601  0.0353
  712SOL    HW1 2271   0.731   2.513   0.953  0.4276  0.4492 -0.5540
  712SOL    HW2 2272   0.616   2.415   0.953 -0.6438  1.6742 -0.6896
  713SOL     OW 2273   2.916   2.086   1.014 -0.1993  0.2344 -0.0645
  713SOL    HW1 2274   2.941   2.142   1.087 -0.1841  2.1569 -1.4906
  713SOL    HW2 2275   2.854   2.024   1.053 -2.3385  2.8850  1.1370
  714SOL     OW 2276   1.956   1.728   2.579  0.1518 -0.4256  0.2134
  714SOL    HW1 2277   1.910   1.645   2.593 -0.1263 -1.1102 -3.6344
  714SOL    HW2 2278   2.048   1.707   2.593  0.1590 -1.6553 -1.3918
  715SOL     OW 2279   3.274   2.209   2.699  0.5044 -0.9791  0.0733
  715SOL    HW1 2280   3.324   2.256   2.633  0.9024 -1.3604  0.1041
  715SOL    HW2 2281   3.251   2.277   2.763 -0.8583 -0.3747 -1.0024
  716SOL     OW 2282   2.408   1.520   0.424 -0.3806  0.3019 -0.3606
  716SOL    HW1 2283   2.492   1.475   0.417  1.4656  3.3466  0.3590
  716SOL    HW2 2284   2.372   1.490   0.508  0.6190 -0.1228 -0.0602
  717SOL     OW 2285   3.208   0.117   1.787  0.3284  0.4912 -0.1512
  717SOL    HW1 2286   3.145   0.167   1.839  0.0135 -0.1972  0.1312
  717SOL    HW2 2287   3.283   0.106   1.845 -0.0955 -0.4374  0.2411
  718SOL     OW 2288   1.319   3.866   0.584 -0.2142  0.4070  0.4643
  718SOL    HW1 2289   1.352   3.831   0.501 -0.1913 -1.5938  1.2490
  718SOL    HW2 2290   1.242   3.916   0.560 -0.1953 -0.1153 -0.7788
  719SOL     OW 2291   2.675   3.780   0.307 -0.2038  0.4793 -0.3352
  719SOL    HW1 2292   2.649   3.690   0.323 -0.2335  1.0197  3.4484
  719SOL    HW2 2293   2.767   3.783   0.331 -1.1075  2.1381  3.6350
  720SOL     OW 2294   1.713   0.413   3.802 -0.2199  0.3016  0.4997
  720SOL    HW1 2295   1.758   0.422   3.886 -0.0880 -0.6609  0.5350
  720SOL    HW2 2296   1.694   0.320   3.795 -1.7130  0.6104  0.2210
  721SOL     OW 2297   2.056   2.712   3.778  0.0660  0.2631 -0.3097
  721SOL    HW1 2298   2.016   2.796   3.755  3.3215  2.1255  0.1606
  721SOL    HW2 2299   2.104   2.685   3.699  1.1870  0.2768  0.3341
  722SOL     OW 2300   1.485   3.253   2.353 -0.1920  0.0536 -0.0255
  722SOL    HW1 2301   1.490   3.158   2.357 -0.5005  0.0277 -0.2572
  722SOL    HW2 2302   1.455   3.279   2.440 -0.2150 -0.0690  0.0032
  723SOL     OW 2303   0.551   3.031   3.618 -0.1451  0.1764 -0.3592
  723SOL    HW1 2304   0.587   3.048   3.531  1.2729  1.2629  0.3842
  723SOL    HW2 2305   0.601   3.089   3.676 -3.2725  1.9505  0.7914
  724SOL     OW 2306   1.125   3.267   3.565 -0.2909 -0.3057  0.6281
  724SOL    HW1 2307   1.106   3.184   3.521  1.6826  0.2885 -1.5823
  724SOL    HW2 2308   1.092   3.334   3.504  0.3830  0.5353  1.1618
  725SOL     OW 2309   0.692   1.935   2.103 -0.0453 -0.4645 -0.0103
  725SOL    HW1 2310   0.673   1.934   2.009 -1.6837 -0.3706  0.2813
  725SOL    HW2 2311   0.606   1.934   2.144  0.6007  0.8817  1.4887
  726SOL     OW 2312   0.759   3.113   3.777  0.0877 -0.1075 -0.0644
  726SOL    HW1 2313   0.768   3.180   3.710 -1.3126  0.8219  0.6211
  726SOL    HW2 2314   0.833   3.127   3.835 -0.6737  1.4993  0.5859
  727SOL     OW 2315   2.551   3.068   3.892 -0.0339  0.5128 -0.0444
  727SOL    HW1 2316   2.478   3.117   3.855  0.5864  1.5128  0.0322
  727SOL    HW2 2317   2.608   3.049   3.816  1.4791  2.9746  0.3653
  728SOL     OW 2318   0.309   2.770   0.921  0.2677  0.8901 -0.1621
  728SOL    HW1 2319   0.270   2.693   0.880 -0.7031 -0.0842  2.4309
  728SOL    HW2 2320   0.237   2.831   0.931  0.4661  1.0637  0.2133
  729SOL     OW 2321   3.302   0.411   2.222 -0.2863 -0.1602 -0.2797
  729SOL    HW1 2322   3.241   0.338   2.219  0.9303 -1.2501  0.1903
  729SOL    HW2 2323   3.344   0.412   2.136 -1.0416  0.6759 -0.6530
  730SOL     OW 2324   0.901   2.006   2.285 -0.1466  0.0353 -0.0150
  730SOL    HW1 2325   0.832   1.996   2.219 -1.3763  0.9580  1.0714
  730SOL    HW2 2326   0.926   2.098   2.279 -1.6930  0.6634  2.0818
  731SOL     OW 2327   2.538   3.020   3.472 -0.5091 -0.2716  0.0545
  731SOL    HW1 2328   2.514   2.931   3.499 -1.2613 -0.1192 -0.0973
  731SOL    HW2 2329   2.455   3.065   3.462 -0.0928  1.2186  2.6183
  732SOL     OW 2330   3.575   0.225   2.134  0.4837  0.0161 -0.1390
  732SOL    HW1 2331   3.568   0.314   2.099  1.4822 -0.3547 -1.3142
  732SOL    HW2 2332   3.645   0.230   2.198  2.2630 -0.4256 -1.9682
  733SOL     OW 2333   1.973   2.897   1.931  0.0389 -0.3491 -0.1189
  733SOL    HW1 2334   1.926   2.963   1.880  0.1132 -0.8421 -0.8522
  733SOL    HW2 2335   1.922   2.817   1.919 -0.5828 -0.2288  1.5483
  734SOL     OW 2336   0.982   2.676   1.338  0.8082 -0.3735 -0.0893
  734SOL    HW1 2337   1.028   2.625   1.272  2.8933 -1.3237  1.9606
  734SOL    HW2 2338   0.889   2.666   1.316  1.2612 -3.1615 -1.0736
  735SOL     OW 2339   3.693   2.704   3.156  0.3404  0.5902  0.4023
  735SOL    HW1 2340   3.763   2.755   3.116  1.5089 -0.0541  1.5450
  735SOL    HW2 2341   3.651   2.659   3.082  0.1168  2.1430 -0.4635
  736SOL     OW 2342   1.441   3.284   0.329  0.3337 -0.3842  0.3986
  736SOL    HW1 2343   1.452   3.274   0.424 -0.3026  0.3857  0.5691
  736SOL    HW2 2344   1.350   3.260   0.313 -0.3432  1.9267  0.3954
  737SOL     OW 2345   3.964   1.346   2.034  0.2606 -0.4812  0.4698
  737SOL    HW1 2346   3.884   1.368   1.986  0.1112  1.2458  1.4401
  737SOL    HW2 2347   3.946   1.259   2.071 -2.2130  0.8075  2.6525
  738SOL     OW 2348   0.027   1.731   0.479  0.7288 -0.1566  0.3453
  738SOL    HW1 2349   0.041   1.805   0.537  2.2156 -1.5059  1.8027
  738SOL    HW2 2350  -0.063   1.742   0.448 -0.0539  0.7911  2.7036
  739SOL     OW 2351   3.180   2.137   0.617 -0.4200 -0.3028 -0.6909
  739SOL    HW1 2352   3.256   2.128   0.675 -0.8503  0.2535 -0.0184
  739SOL    HW2 2353   3.139   2.051   0.617  0.3257 -0.6661 -1.2290
  740SOL     OW 2354   2.454   3.120   1.221  0.2199  0.3316 -0.3861
  740SOL    HW1 2355   2.521   3.056   1.197  0.4166  0.3677  0.0562
  740SOL    HW2 2356   2.486   3.203   1.185  0.8449  0.5140  0.5557
  741SOL     OW 2357   0.037   0.157   3.848 -0.0816  0.4944  0.1842
  741SOL    HW1 2358   0.095   0.097   3.802  0.3247  1.0206 -0.0091
  741SOL    HW2 2359  -0.011   0.202   3.779 -0.2480  0.5227  0.3178
  742SOL     OW 2360   3.353   0.649   0.821  0.2281  0.3195 -0.0929
  742SOL    HW1 2361   3.276   0.687   0.865 -0.1035 -1.6556  1.1517
  742SOL    HW2 2362   3.413   0.628   0.893  2.4594  2.7228 -1.0953
  743SOL     OW 2363   1.103   3.045   3.416  0.2560  0.1113  0.3946
  743SOL    HW1 2364   1.191   3.063   3.383  1.4469 -0.2200  3.1617
  743SOL    HW2 2365   1.104   2.951   3.437 -1.3226 -0.2635 -0.9793
  744SOL     OW 2366   0.165   2.837   0.624  0.1376 -0.6234 -0.0539
  744SOL    HW1 2367   0.223   2.881   0.686  1.5469  0.3735 -1.9500
  744SOL    HW2 2368   0.097   2.901   0.605  0.2995 -0.5230 -0.3034
  745SOL     OW 2369   0.980   0.539   0.238  0.4088 -0.8625  0.4038
  745SOL    HW1 2370   1.015   0.523   0.150  0.4304  0.8574  0.0690
  745SOL    HW2 2371   0.904   0.596   0.223  0.2178 -0.8197  1.4888
  746SOL     OW 2372   0.644   2.889   3.090 -0.4960 -0.2809  0.4007
  746SOL    HW1 2373   0.671   2.802   3.059 -0.5140 -0.8216  1.8493
  746SOL    HW2 2374   0.625   2.877   3.183  0.0395  1.3998  0.7601
  747SOL     OW 2375   0.902   1.915   1.105 -0.4846 -0.7275 -0.3566
  747SOL    HW1 2376   0.878   1.841   1.161  0.5296 -0.9148 -0.1563
  747SOL    HW2 2377   0.826   1.927   1.048 -2.0813  0.2498  1.8423
  748SOL     OW 2378   3.439   0.764   2.979 -0.1869  0.0167 -0.5728
  748SOL    HW1 2379   3.417   0.723   3.063  1.5929 -1.5884 -0.8246
  748SOL    HW2 2380   3.459   0.855   3.001  0.0187 -0.3148  0.7143
  749SOL     OW 2381   1.888   2.521   0.024 -0.3305  0.1962  0.2189
  749SOL    HW1 2382   1.965   2.577   0.012  0.4030 -0.5815  1.2023
  749SOL    HW2 2383   1.881   2.508   0.118 -2.9515  1.9725  0.4025
  750SOL     OW 2384   3.891   3.637   0.526  0.1285 -0.1053 -0.3245
  750SOL    HW1 2385   3.957   3.615   0.461  1.4035 -0.6486  1.0808
  750SOL    HW2 2386   3.934   3.700   0.584 -0.4517 -0.7002  0.7963
  751SOL     OW 2387   2.330   3.052   1.671  0.1919 -0.5373  0.4090
  751SOL    HW1 2388   2.371   3.008   1.597  0.8154  0.2272  0.2896
  751SOL    HW2 2389   2.402   3.074   1.729 -0.3515 -1.6772  1.5704
  752SOL     OW 2390   1.571   2.138   3.060  0.0103 -0.0538 -0.4157
  752SOL    HW1 2391   1.660   2.103   3.051 -0.2776 -0.7634 -0.6209
  752SOL    HW2 2392   1.535   2.093   3.137  0.2846  1.2484  0.5019
  753SOL     OW 2393   3.296   3.021   0.363 -0.5225  0.0150  0.2800
  753SOL    HW1 2394   3.260   3.006   0.276  1.7065  0.3405 -0.7684
  753SOL    HW2 2395   3.343   2.941   0.384  1.2867  0.9476 -0.0728
  754SOL     OW 2396   1.480   1.418   2.870  0.3492 -0.3111 -0.4234
  754SOL    HW1 2397   1.490   1.362   2.793  0.3427  0.1820 -0.7858
  754SOL    HW2 2398   1.455   1.503   2.835  1.5159  0.2485  0.0239
  755SOL     OW 2399   3.429   0.601   3.564 -0.3825  0.1373 -0.4135
  755SOL    HW1 2400   3.349   0.604   3.617  0.4604 -1.1083  0.9972
  755SOL    HW2 2401   3.452   0.508   3.560  1.8085  0.5777  0.4863
  756SOL     OW 2402   0.503   3.414   0.794 -0.0149 -0.0116  0.1585
  756SOL    HW1 2403   0.421   3.463   0.792 -0.1039 -0.0461  1.6024
  756SOL    HW2 2404   0.551   3.444   0.717 -1.1061  0.4755 -0.3625
  757SOL     OW 2405   3.630   2.111   0.487  0.1875 -0.4505 -0.3043
  757SOL    HW1 2406   3.707   2.075   0.444 -0.8402 -2.9585 -0.1892
  757SOL    HW2 2407   3.662   2.144   0.571  1.1231 -1.5754 -0.2030
  758SOL     OW 2408   2.857   2.665   1.367  0.0326  0.3884  0.0184
  758SOL    HW1 2409   2.866   2.588   1.422  0.1366  0.0906 -0.4079
  758SOL    HW2 2410   2.888   2.637   1.280 -0.3235  0.7868 -0.2438
  759SOL     OW 2411   2.434   2.348   1.658 -0.1559  0.0930  0.5041
  759SOL    HW1 2412   2.419   2.427   1.710 -3.1909 -2.0648  3.2995
  759SOL    HW2 2413   2.469   2.284   1.721  2.8760 -0.7972 -1.8121
  760SOL     OW 2414   0.296   0.737   1.916  0.4291  1.0468 -0.2368
  760SOL    HW1 2415   0.268   0.681   1.989 -0.2264  1.2047 -0.3569
  760SOL    HW2 2416   0.250   0.701   1.840 -0.1604  1.8726 -0.2796
  761SOL     OW 2417   3.376   3.676   3.829 -0.1604 -0.2585  0.4302
  761SOL    HW1 2418   3.354   3.686   3.737 -0.5304 -1.8906  0.3114
  761SOL    HW2 2419   3.322   3.741   3.874 -0.7950 -0.1896 -0.4154
  762SOL     OW 2420   0.166   0.394   3.508 -0.6566  0.8927 -0.0792
  762SOL    HW1 2421   0.256   0.374   3.483 -0.3693  1.9858  0.0537
  762SOL    HW2 2422   0.116   0.382   3.427 -0.1195  1.9415 -0.5951
  763SOL     OW 2423   1.130   2.335   2.625 -0.5083  0.7659 -0.3057
  763SOL    HW1 2424   1.152   2.281   2.701  0.7598  1.0789 -0.4259
  763SOL    HW2 2425   1.036   2.323   2.613 -0.4936 -0.3208  0.5129
  764SOL     OW 2426   2.077   1.226   2.770 -0.1586 -0.1387  0.0457
  764SOL    HW1 2427   2.105   1.150   2.821  0.5474  1.2808  1.8759
  764SOL    HW2 2428   2.132   1.298   2.801 -0.9446  1.1908 -1.4747
  765SOL     OW 2429   2.478   1.239   0.214 -0.0968  0.1200 -0.2304
  765SOL    HW1 2430   2.546   1.273   0.156  2.0277 -2.2293  0.6999
  765SOL    HW2 2431   2.400   1.232   0.159  0.8409  1.3423 -1.7852
  766SOL     OW 2432   2.378   0.207   2.145 -0.3761  1.0000  0.1816
  766SOL    HW1 2433   2.388   0.192   2.052 -0.6494 -0.6515  0.3981
  766SOL    HW2 2434   2.458   0.253   2.171  0.3123  0.2649 -0.6096
  767SOL     OW 2435   0.175   2.228   0.532  0.3904  0.0295 -0.1745
  767SOL    HW1 2436   0.229   2.302   0.561  1.7330 -0.8124 -0.4528
  767SOL    HW2 2437   0.151   2.184   0.613  0.1807  0.3639 -0.0515
  768SOL     OW 2438   1.326   2.718   1.509  0.1027 -0.5808  0.5982
  768SOL    HW1 2439   1.275   2.731   1.589 -2.6775  0.5023 -1.2041
  768SOL    HW2 2440   1.301   2.791   1.452  0.7468 -2.1577 -1.8495
  769SOL     OW 2441   2.662   2.956   2.828  0.8693 -0.1209  0.0943
  769SOL    HW1 2442   2.738   2.935   2.774  0.6794  2.3277 -1.2629
  769SOL    HW2 2443   2.683   3.041   2.868 -0.8870  0.3332  0.1456
  770SOL     OW 2444   1.843   1.693   2.942  0.1622 -0.3037 -0.0976
  770SOL    HW1 2445   1.908   1.756   2.911  1.1422  0.0093  2.3942
  770SOL    HW2 2446   1.882   1.607   2.924  1.0786 -0.1200  0.9263
  771SOL     OW 2447   2.674   0.547   0.778 -0.4263  0.0757  0.1191
  771SOL    HW1 2448   2.769   0.557   0.775 -0.2455 -1.4040  0.1800
  771SOL    HW2 2449   2.659   0.477   0.841 -1.4370 -0.9040 -1.1478
  772SOL     OW 2450   2.088   1.520   0.611 -0.0199 -0.3348 -0.2165
  772SOL    HW1 2451   2.118   1.496   0.699 -1.8269 -0.7812  0.3005
  772SOL    HW2 2452   2.111   1.613   0.603 -1.0144  0.0740  1.2625
  773SOL     OW 2453  -0.000   1.634   2.857  0.3269  0.0630  0.2193
  773SOL    HW1 2454  -0.000   1.675   2.943  1.3894 -1.5810  1.0607
  773SOL    HW2 2455   0.038   1.699   2.799 -1.5737  1.6876  0.6805
  774SOL     OW 2456   3.132   3.478   0.617  0.2318 -0.9979  0.4258
  774SOL    HW1 2457   3.137   3.382   0.616 -0.8447 -1.2465  3.9995
  774SOL    HW2 2458   3.041   3.497   0.640 -0.7622  1.1622 -4.1538
  775SOL     OW 2459   1.930   2.026   1.889  0.4694 -0.8988  0.2626
  775SOL    HW1 2460   1.959   2.063   1.805 -1.7869  0.6749  0.0951
  775SOL    HW2 2461   1.960   2.088   1.955 -0.4712 -0.4899  0.3085
  776SOL     OW 2462   1.756   2.596   0.452  0.1412 -0.3221  0.2000
  776SOL    HW1 2463   1.688   2.626   0.391  1.5506  0.9009 -0.8330
  776SOL    HW2 2464   1.824   2.662   0.446  0.8866 -0.8561  2.1845
  777SOL     OW 2465   1.839   3.099   0.878 -0.2075 -0.3555  0.0838
  777SOL    HW1 2466   1.798   3.172   0.834  2.8435  2.1918  1.0751
  777SOL    HW2 2467   1.799   3.097   0.965  1.6198  2.1636  1.0879
  778SOL     OW 2468   0.098   1.955   0.633 -0.1430 -0.4051 -0.8618
  778SOL    HW1 2469   0.042   1.981   0.705 -0.4329 -1.3930 -0.7081
  778SOL    HW2 2470   0.187   1.959   0.668 -0.0716  1.4494 -1.1955
  779SOL     OW 2471   0.444   3.546   2.870 -0.0589 -0.0191 -0.0250
  779SOL    HW1 2472   0.511   3.583   2.813  0.9965 -1.5499  0.1789
  779SOL    HW2 2473   0.368   3.533   2.813 -0.2705  1.7959 -0.2349
  780SOL     OW 2474   2.490   0.665   2.657 -0.3819  0.3906 -0.5560
  780SOL    HW1 2475   2.518   0.670   2.748 -0.8071 -1.2000 -0.2948
  780SOL    HW2 2476   2.441   0.582   2.652  1.0881 -0.4372 -2.6071
  781SOL     OW 2477   3.653   2.734   3.546  0.1893  0.0583 -0.2482
  781SOL    HW1 2478   3.700   2.667   3.496  1.1827  0.0510  0.6440
  781SOL    HW2 2479   3.619   2.688   3.622 -0.0367  0.3583 -0.1648
  782SOL     OW 2480   0.253   3.168   1.790  0.2349 -0.4723  0.0109
  782SOL    HW1 2481   0.283   3.212   1.868  0.3429 -2.0148  0.8869
  782SOL    HW2 2482   0.193   3.230   1.748 -2.6637 -0.8068  3.1885
  783SOL     OW 2483   3.841   1.791   1.142 -0.2337  0.4194  0.0681
  783SOL    HW1 2484   3.795   1.707   1.148 -1.9170  1.1266 -1.8344
  783SOL    HW2 2485   3.776   1.851   1.104  1.2114  2.3647  0.5313
  784SOL     OW 2486   1.902   0.803   0.993  0.1047 -1.0417 -0.1218
  784SOL    HW1 2487   1.871   0.842   0.911 -0.8105  0.0904  0.7218
  784SOL    HW2 2488   1.996   0.792   0.980  0.2882  0.8425 -0.6831
  785SOL     OW 2489   1.508   2.919   3.210  0.3803 -0.1773  0.2319
  785SOL    HW1 2490   1.453   2.990   3.244 -3.2296 -1.1774 -2.7734
  785SOL    HW2 2491   1.494   2.847   3.271  0.0861  0.2446  0.6746
  786SOL     OW 2492   3.519   2.065   2.789  0.6403  0.3474 -0.6771
  786SOL    HW1 2493   3.448   2.107   2.741  0.7548 -1.3683 -2.5114
  786SOL    HW2 2494   3.594   2.067   2.729  1.6913  0.6835  0.5865
  787SOL     OW 2495   3.137   0.221   0.088  0.9730  0.6282  0.9021
  787SOL    HW1 2496   3.111   0.140   0.132  3.8390 -0.5309  0.7085
  787SOL    HW2 2497   3.086   0.289   0.132 -2.3523 -1.2741  0.3923
  788SOL     OW 2498   2.444   1.561   2.117  0.1213  0.1792 -0.4417
  788SOL    HW1 2499   2.489   1.642   2.092 -0.8527  0.5524 -0.9997
  788SOL    HW2 2500   2.351   1.582   2.114 -0.1422 -0.9158 -0.4291
  789SOL     OW 2501   1.615   1.007   3.384  0.2804 -0.0915 -0.0322
  789SOL    HW1 2502   1.683   1.047   3.439  0.9682  0.1898 -1.0441
  789SOL    HW2 2503   1.564   1.081   3.351 -0.9105 -0.3466  1.2003
  790SOL     OW 2504   1.393   3.387   1.809  0.6651  0.0261 -0.3173
  790SOL    HW1 2505   1.341   3.325   1.758  0.8492 -0.1687 -0.2715
  790SOL    HW2 2506   1.386   3.469   1.761 -0.6333  0.3028  0.3124
  791SOL     OW 2507   0.309   2.029   1.435 -0.2220 -0.0182  0.3577
  791SOL    HW1 2508   0.293   2.077   1.517 -1.5158 -0.7089  0.5298
  791SOL    HW2 2509   0.402   2.005   1.440  0.1631  1.4208  0.8112
  792SOL     OW 2510   0.336   2.091   3.971 -0.2157 -0.3187 -0.2400
  792SOL    HW1 2511   0.267   2.034   3.938 -2.0106  1.3815  0.3433
  792SOL    HW2 2512   0.325   2.173   3.922  1.4825 -0.0332 -0.2132
  793SOL     OW 2513   0.065   3.525   3.469 -0.3239 -0.4031 -0.2922
  793SOL    HW1 2514   0.119   3.567   3.536 -0.4234 -1.7986  0.6963
  793SOL    HW2 2515   0.084   3.574   3.389  0.8661  0.4055  0.4563
  794SOL     OW 2516   1.078   1.174   1.116 -0.1029 -0.3198  0.2934
  794SOL    HW1 2517   0.992   1.165   1.074 -0.3089 -0.1369  0.6661
  794SOL    HW2 2518   1.071   1.254   1.169  0.3231 -0.2623  0.2659
  795SOL     OW 2519   2.242   0.814   0.155 -0.1909  0.9190  1.2343
  795SOL    HW1 2520   2.204   0.901   0.150 -1.0680  0.4865 -0.1262
  795SOL    HW2 2521   2.293   0.805   0.074 -1.7953 -0.5467  0.3069
  796SOL     OW 2522   2.523   2.346   3.662  0.4151  0.7277 -0.3272
  796SOL    HW1 2523   2.435   2.321   3.690  0.6523 -1.9970 -1.6943
  796SOL    HW2 2524   2.529   2.439   3.683 -1.8199  0.4313  2.1953
  797SOL     OW 2525   1.882   3.556   3.921  0.2881 -0.2318 -0.4845
  797SOL    HW1 2526   1.918   3.492   3.982  0.8110  0.1289 -0.4050
  797SOL    HW2 2527   1.824   3.610   3.974  2.3494  1.4342  0.2271
  798SOL     OW 2528   2.806   1.440   1.256  0.4182  0.2456  0.2968
  798SOL    HW1 2529   2.777   1.372   1.195  0.4518 -0.9461  1.5638
  798SOL    HW2 2530   2.794   1.402   1.343  3.1301  0.7433  1.0042
  799SOL     OW 2531   0.993   1.223   2.030  0.1429 -0.2233  0.2202
  799SOL    HW1 2532   1.087   1.211   2.017  0.2274 -0.3871  0.9920
  799SOL    HW2 2533   0.956   1.218   1.941  0.6568 -1.8999  0.0612
  800SOL     OW 2534   1.006   0.267   1.596  0.0899  0.5026 -0.2541
  800SOL    HW1 2535   1.082   0.320   1.570  0.4300 -0.0553 -0.4063
  800SOL    HW2 2536   0.960   0.321   1.659  0.4489  0.9762 -0.3913
  801SOL     OW 2537   3.302   2.843   3.142  0.1582  0.3857 -0.0867
  801SOL    HW1 2538   3.364   2.807   3.080 -1.2751 -0.3942 -1.1220
  801SOL    HW2 2539   3.226   2.868   3.089 -0.4503  1.2534  1.1313
  802SOL     OW 2540   0.473   0.214   3.045  0.5608  0.2323  0.0250
  802SOL    HW1 2541   0.500   0.218   2.953 -0.0310 -2.6362 -0.3694
  802SOL    HW2 2542   0.544   0.167   3.089 -1.3343 -3.0421 -0.0855
  803SOL     OW 2543   3.827   0.584   2.103 -1.1240  0.4541  0.1064
  803SOL    HW1 2544   3.746   0.534   2.097 -1.7316  1.0987  2.1783
  803SOL    HW2 2545   3.819   0.634   2.184  2.0859 -0.7705  1.3499
  804SOL     OW 2546   3.421   1.606   3.523 -0.0742 -0.3493 -0.9928
  804SOL    HW1 2547   3.341   1.608   3.576 -1.1148 -3.0098 -2.2581
  804SOL    HW2 2548   3.471   1.532   3.557  1.9979  1.3243 -0.1680
  805SOL     OW 2549   2.830   2.608   1.844 -0.6080 -0.5214  0.1036
  805SOL    HW1 2550   2.909   2.632   1.893 -1.0520  0.6676  0.2807
  805SOL    HW2 2551   2.791   2.692   1.820 -1.8720 -1.0927  0.0955
  806SOL     OW 2552   3.572   0.248   0.212  0.3307  0.3872  0.0242
  806SOL    HW1 2553   3.657   0.204   0.222 -0.1399 -0.1375  2.4682
  806SOL    HW2 2554   3.569   0.274   0.120  2.6771 -0.5098 -0.3841
  807SOL     OW 2555   2.652   1.482   3.811 -0.3920  0.1427 -0.5351
  807SOL    HW1 2556   2.593   1.540   3.859  1.5109  1.5342  0.2034
  807SOL    HW2 2557   2.740   1.512   3.833  0.7571 -3.3889  0.3718
  808SOL     OW 2558   0.043   2.488   2.025 -0.5190 -0.2323  0.3131
  808SOL    HW1 2559   0.061   2.582   2.026 -0.9693 -0.1409  0.3860
  808SOL    HW2 2560   0.043   2.462   2.117 -0.7136 -0.2355  0.3134
  809SOL     OW 2561   1.071   2.618   2.349  1.0206  0.0419 -0.7379
  809SOL    HW1 2562   1.084   2.652   2.438  2.0372  3.0223 -1.9119
  809SOL    HW2 2563   1.138   2.550   2.341  0.9042 -0.2990  0.7562
  810SOL     OW 2564   0.750   3.872   2.126  0.1840 -0.2862 -0.1547
  810SOL    HW1 2565   0.783   3.823   2.202 -1.6630 -1.6487 -0.1719
  810SOL    HW2 2566   0.736   3.805   2.059 -1.4803  0.3709 -0.5054
  811SOL     OW 2567   1.148   3.794   2.478  0.3555 -1.0135  0.0977
  811SOL    HW1 2568   1.229   3.840   2.499  0.6753 -0.6647 -1.7505
  811SOL    HW2 2569   1.083   3.864   2.468  0.4334 -1.0667 -0.9249
  812SOL     OW 2570   2.108   2.941   1.623 -0.1363  0.0690  0.6370
  812SOL    HW1 2571   2.186   2.988   1.653 -0.3843  0.2034  1.0794
  812SOL    HW2 2572   2.061   2.918   1.704 -0.2768 -0.4913  0.4050
  813SOL     OW 2573   3.004   2.194   0.132 -0.0739 -0.3154  0.0065
  813SOL    HW1 2574   2.931   2.174   0.191  0.1875  0.3224  0.5673
  813SOL    HW2 2575   3.005   2.290   0.129  0.0965 -0.3375 -0.8194
  814SOL     OW 2576   0.247   2.385   1.877 -1.1573 -0.4028  0.3458
  814SOL    HW1 2577   0.267   2.400   1.969 -1.6068 -1.2010  0.5898
  814SOL    HW2 2578   0.152   2.397   1.870 -1.9519 -4.7030  0.9994
  815SOL     OW 2579   1.363   2.222   0.375  0.4942 -0.2000 -0.4282
  815SOL    HW1 2580   1.317   2.305   0.385 -1.2700 -1.1035 -0.6951
  815SOL    HW2 2581   1.316   2.161   0.431  1.3939 -1.1610 -0.6887
  816SOL     OW 2582   2.615   3.022   0.960  0.4423 -0.1690 -0.5440
  816SOL    HW1 2583   2.595   3.094   0.900  0.4155  1.5498  1.3967
  816SOL    HW2 2584   2.563   2.948   0.928  0.6449  0.5468 -2.7478
  817SOL     OW 2585   1.453   0.593   0.696  0.5359  0.5887  0.3929
  817SOL    HW1 2586   1.545   0.613   0.680  0.7356 -0.8756 -0.4504
  817SOL    HW2 2587   1.432   0.639   0.778  2.4232 -0.1912  1.3669
  818SOL     OW 2588   1.363   1.432   3.395  0.0484  0.8912  0.2850
  818SOL    HW1 2589   1.379   1.428   3.490 -0.1986  1.8089  0.3674
  818SOL    HW2 2590   1.281   1.385   3.383  1.1747 -1.2144  0.2243
  819SOL     OW 2591   3.782   0.771   2.640  0.7240  0.5551 -0.4660
  819SOL    HW1 2592   3.711   0.710   2.655 -0.0468  0.7852 -2.8110
  819SOL    HW2 2593   3.743   0.857   2.656  0.7266  0.6310 -0.8632
  820SOL     OW 2594   3.498   3.176   2.625  0.2191  0.4836 -0.0704
  820SOL    HW1 2595   3.594   3.170   2.622  0.4582  3.1319  0.1415
  820SOL    HW2 2596   3.475   3.147   2.714  0.6778 -1.0682 -0.4196
  821SOL     OW 2597   2.788   1.517   0.550  0.1529 -0.6252 -0.1196
  821SOL    HW1 2598   2.880   1.545   0.544  0.0367  0.3595  1.8466
  821SOL    HW2 2599   2.793   1.423   0.568  0.8264 -0.3914  0.9824
  822SOL     OW 2600   0.107   0.085   2.848 -0.0007  0.0432  0.4180
  822SOL    HW1 2601   0.117   0.083   2.943  1.0978  1.0395  0.3484
  822SOL    HW2 2602   0.085  -0.006   2.825  0.4223 -0.3695  1.5511
  823SOL     OW 2603   3.227   0.560   3.729  0.1393 -0.1242  0.0971
  823SOL    HW1 2604   3.156   0.496   3.725 -0.1151  0.1573  0.1075
  823SOL    HW2 2605   3.249   0.566   3.823 -0.5829  0.6184  0.2275
  824SOL     OW 2606   3.891   1.584   3.692  0.1313  0.1297 -0.0706
  824SOL    HW1 2607   3.968   1.602   3.746 -0.6124  2.2873  0.3951
  824SOL    HW2 2608   3.926   1.571   3.604  1.0574  0.9841  0.1489
  825SOL     OW 2609   1.863   2.005   0.414 -0.5619 -0.0264 -0.0293
  825SOL    HW1 2610   1.839   2.071   0.348 -1.0514 -0.3389 -0.1656
  825SOL    HW2 2611   1.783   1.953   0.427  0.1941 -1.4771 -0.9492
  826SOL     OW 2612   3.184   3.042   3.376  0.0483 -0.3991 -0.2507
  826SOL    HW1 2613   3.233   2.984   3.435  0.5758 -0.2307 -0.5186
  826SOL    HW2 2614   3.240   3.119   3.368 -0.0882 -0.3667 -0.8645
  827SOL     OW 2615   2.135   0.400   2.037  0.1603 -0.7263  0.5928
  827SOL    HW1 2616   2.122   0.428   1.946  0.2053 -0.6406  0.6132
  827SOL    HW2 2617   2.207   0.337   2.032  1.8286  1.0923  0.8977
  828SOL     OW 2618   1.839   3.167   3.644  0.1056 -0.0634  0.5001
  828SOL    HW1 2619   1.794   3.191   3.563 -1.0382 -0.8379  0.8778
  828SOL    HW2 2620   1.850   3.249   3.691  1.2890  0.4766 -0.6684
  829SOL     OW 2621   0.000   0.594   0.617  0.1281  0.1584 -0.2254
  829SOL    HW1 2622   0.018   0.526   0.552  0.2684  0.0339 -0.0546
  829SOL    HW2 2623  -0.013   0.673   0.564  1.8853  0.4141 -0.3431
  830SOL     OW 2624   3.014   3.008   3.182  0.1635 -0.2452 -0.2157
  830SOL    HW1 2625   2.968   2.931   3.216 -1.0155  1.8282  3.5151
  830SOL    HW2 2626   3.077   3.031   3.250 -0.6893  2.9484 -0.3247
  831SOL     OW 2627   3.289   3.397   3.837 -0.3485 -0.0838 -0.0092
  831SOL    HW1 2628   3.249   3.360   3.759 -1.4626  1.3016 -0.1397
  831SOL    HW2 2629   3.331   3.477   3.807  0.8256 -0.4884  0.4979
  832SOL     OW 2630   3.719   1.453   3.288 -0.5773  0.2139 -0.0256
  832SOL    HW1 2631   3.698   1.418   3.201 -2.9035 -0.5530  0.7601
  832SOL    HW2 2632   3.753   1.378   3.336  2.1393  0.9595 -0.6170
  833SOL     OW 2633   0.312   1.043   1.979  0.5226  0.5133  0.0118
  833SOL    HW1 2634   0.261   1.094   1.917 -0.1930 -0.2965 -0.0860
  833SOL    HW2 2635   0.293   0.952   1.957 -0.8909  0.1816  2.2911
  834SOL     OW 2636   0.067   1.960   3.418 -0.7185 -0.0656 -0.1084
  834SOL    HW1 2637   0.109   1.931   3.499 -1.2666  0.4787  0.3792
  834SOL    HW2 2638   0.139   1.968   3.355  0.0641  1.6054  0.9199
  835SOL     OW 2639   3.859   2.015   0.408 -0.1002 -0.0885  0.2191
  835SOL    HW1 2640   3.949   2.009   0.439 -0.2834  0.7709  0.9863
  835SOL    HW2 2641   3.853   1.951   0.337  0.4828 -1.7952  1.6378
  836SOL     OW 2642   0.706   2.440   3.296 -0.5115  0.2214  0.1892
  836SOL    HW1 2643   0.645   2.372   3.269 -0.3647  0.0230  0.3568
  836SOL    HW2 2644   0.709   2.434   3.392  0.8041 -0.6875  0.1224
  837SOL     OW 2645   1.056   0.443   3.044 -0.0531  0.3217 -0.0657
  837SOL    HW1 2646   1.109   0.468   3.120 -0.3075  0.6353  0.0090
  837SOL    HW2 2647   0.966   0.451   3.074 -0.1664  0.8495 -0.5259
  838SOL     OW 2648   1.713   1.781   3.771  0.3042 -0.3840 -0.6812
  838SOL    HW1 2649   1.642   1.718   3.762  1.0095 -1.3215  0.1225
  838SOL    HW2 2650   1.670   1.860   3.805 -0.7958  0.0639 -2.9403
  839SOL     OW 2651   1.391   3.907   2.490  0.1991  0.3480  0.1512
  839SOL    HW1 2652   1.465   3.858   2.525 -0.0423  0.3126  0.6116
  839SOL    HW2 2653   1.423   3.942   2.406 -0.4915 -2.9274 -1.6326
  840SOL     OW 2654   3.687   0.852   0.547  0.1539 -0.0468  0.0758
  840SOL    HW1 2655   3.666   0.773   0.497  0.4005 -0.1300  0.1018
  840SOL    HW2 2656   3.782   0.854   0.551  0.1472  0.1874  0.1808
  841SOL     OW 2657   3.362   2.519   0.403 -0.4895  0.4765  0.1322
  841SOL    HW1 2658   3.332   2.461   0.473 -0.2592  0.7949  0.5034
  841SOL    HW2 2659   3.298   2.590   0.401 -0.8871  0.1126 -0.4625
  842SOL     OW 2660   1.096   0.228   0.604 -0.7347  0.0258  0.5825
  842SOL    HW1 2661   1.070   0.144   0.642  1.3953 -1.2710 -0.6425
  842SOL    HW2 2662   1.120   0.207   0.514  1.4203  1.6039  0.7166
  843SOL     OW 2663   3.467   2.720   1.799 -0.2051 -0.2768  0.1320
  843SOL    HW1 2664   3.420   2.687   1.723 -1.6507  0.6097  0.5983
  843SOL    HW2 2665   3.400   2.765   1.851  0.9522  0.0491  1.3964
  844SOL     OW 2666   0.140   2.875   2.439 -0.0418  0.6695 -0.2042
  844SOL    HW1 2667   0.208   2.824   2.396 -0.5343  1.2019 -1.6935
  844SOL    HW2 2668   0.136   2.840   2.528  0.7136 -0.7891 -0.7066
  845SOL     OW 2669   0.519   0.751   2.581 -0.5715 -0.5828 -0.0974
  845SOL    HW1 2670   0.595   0.753   2.523 -1.2732  0.1260 -1.0264
  845SOL    HW2 2671   0.444   0.736   2.523 -1.0956 -2.0931  0.8803
  846SOL     OW 2672   1.084   2.614   0.391  0.1979  0.1802  0.4022
  846SOL    HW1 2673   1.164   2.591   0.439  0.0638 -0.6364  0.2344
  846SOL    HW2 2674   1.013   2.592   0.452  0.1062  2.1120  1.0806
  847SOL     OW 2675   1.260   2.586   0.148 -0.3859 -0.2113 -0.4957
  847SOL    HW1 2676   1.173   2.547   0.147 -0.7665  0.5814 -0.0711
  847SOL    HW2 2677   1.249   2.667   0.199  0.6546 -0.2364 -0.1941
  848SOL     OW 2678   0.838   2.053   3.532 -0.5272 -0.7950 -0.1043
  848SOL    HW1 2679   0.919   2.101   3.516 -0.5685 -0.2539  1.1899
  848SOL    HW2 2680   0.832   2.045   3.628 -2.3351 -0.2042 -0.1169
  849SOL     OW 2681   3.654   2.817   2.640 -0.1062 -0.1138  0.3054
  849SOL    HW1 2682   3.561   2.830   2.623 -0.0288 -0.0621 -0.0828
  849SOL    HW2 2683   3.684   2.758   2.571  0.3567  0.6403 -0.1552
  850SOL     OW 2684   2.357   3.736   2.012  0.6965 -0.7016 -0.2251
  850SOL    HW1 2685   2.411   3.781   1.947 -0.6502 -0.9164 -1.5510
  850SOL    HW2 2686   2.418   3.679   2.059  2.2044  1.4270  0.5957
  851SOL     OW 2687   0.997   2.254   2.278 -0.4925  0.6871 -0.0829
  851SOL    HW1 2688   0.944   2.275   2.355  0.5579  2.2956  0.2354
  851SOL    HW2 2689   1.074   2.309   2.285  2.3390 -2.9659  0.5286
  852SOL     OW 2690   0.502   3.313   2.654  0.1372  0.2055  0.2447
  852SOL    HW1 2691   0.545   3.331   2.737  0.0550  2.6832 -0.1835
  852SOL    HW2 2692   0.560   3.351   2.588  0.3106 -1.8899 -0.8889
  853SOL     OW 2693   1.335   0.475   0.484 -0.3415  0.3454 -0.2463
  853SOL    HW1 2694   1.388   0.522   0.548  1.0235  0.6510 -1.5382
  853SOL    HW2 2695   1.277   0.541   0.447  0.2924  0.6219 -0.7589
  854SOL     OW 2696   0.894   1.630   1.743 -0.1661  0.0503 -0.1264
  854SOL    HW1 2697   0.974   1.678   1.722  0.3232 -0.0850  1.3237
  854SOL    HW2 2698   0.882   1.642   1.837 -0.3653 -2.1424  0.1822
  855SOL     OW 2699   0.377   1.804   0.549  0.8388 -0.0235 -0.2104
  855SOL    HW1 2700   0.373   1.724   0.602  0.1237  1.2762  1.8053
  855SOL    HW2 2701   0.369   1.875   0.612 -1.9294  1.6374 -2.2248
  856SOL     OW 2702   1.472   0.288   2.632 -0.1557  0.1275  0.1001
  856SOL    HW1 2703   1.505   0.324   2.550  1.3867 -1.7838 -0.2018
  856SOL    HW2 2704   1.539   0.310   2.697  0.7100 -1.8276 -0.0439
  857SOL     OW 2705   2.226   1.350   1.218  0.0994 -0.1432  0.4010
  857SOL    HW1 2706   2.315   1.365   1.184 -0.2323  1.3146  0.0982
  857SOL    HW2 2707   2.194   1.437   1.239  0.6306 -0.8439  5.5621
  858SOL     OW 2708   1.251   3.814   2.874 -0.1193  0.2769 -0.5568
  858SOL    HW1 2709   1.326   3.757   2.883  0.0040  0.3186 -1.2633
  858SOL    HW2 2710   1.282   3.887   2.821 -0.7923  0.0369 -1.2979
  859SOL     OW 2711   3.251   1.026   0.986 -0.1030  0.0525 -0.1501
  859SOL    HW1 2712   3.280   1.021   1.077 -0.2081  0.8356 -0.0695
  859SOL    HW2 2713   3.332   1.034   0.936  0.0313 -1.4419 -0.2311
  860SOL     OW 2714   1.784   3.100   2.534  0.4136 -0.5843 -0.0508
  860SOL    HW1 2715   1.810   3.190   2.553  5.4052 -1.6413 -0.5834
  860SOL    HW2 2716   1.707   3.085   2.589  0.4539  3.3966  1.4134
  861SOL     OW 2717   2.861   2.404   2.876  0.0051  0.1581 -0.0196
  861SOL    HW1 2718   2.893   2.406   2.966 -0.3093  0.0233  0.0971
  861SOL    HW2 2719   2.776   2.361   2.882 -0.4078  0.9136 -0.2545
  862SOL     OW 2720   0.424   3.448   3.121 -0.5549  0.4336  0.0402
  862SOL    HW1 2721   0.372   3.522   3.152 -1.6049 -0.3636  0.2229
  862SOL    HW2 2722   0.433   3.463   3.027 -2.9420 -0.4673 -0.4034
  863SOL     OW 2723   3.580   0.610   2.688  0.0194 -0.0527 -0.0172
  863SOL    HW1 2724   3.490   0.641   2.678 -0.7333 -2.5650 -1.9181
  863SOL    HW2 2725   3.593   0.603   2.783 -0.2803  4.1183  0.5253
  864SOL     OW 2726   2.613   0.807   1.304 -0.8472  0.1989  0.0925
  864SOL    HW1 2727   2.637   0.899   1.312 -1.4888  0.3306  0.5687
  864SOL    HW2 2728   2.523   0.808   1.272 -0.8932 -0.2628  0.1928
  865SOL     OW 2729   0.120   0.441   3.100 -0.3739 -0.6974  0.2975
  865SOL    HW1 2730   0.076   0.524   3.120  1.6766  0.5636 -0.1429
  865SOL    HW2 2731   0.104   0.427   3.007  0.9539  0.3115 -0.1112
  866SOL     OW 2732   1.418   0.777   0.914 -0.4481  0.0001 -0.0053
  866SOL    HW1 2733   1.349   0.814   0.969 -0.7988 -1.0577  0.2978
  866SOL    HW2 2734   1.409   0.823   0.831 -2.2594 -0.8650 -0.3492
  867SOL     OW 2735   2.140   2.388   2.496  0.4405  0.1527  0.2445
  867SOL    HW1 2736   2.229   2.399   2.529  0.2474  1.5844  0.3663
  867SOL    HW2 2737   2.084   2.402   2.572  0.1002 -0.4243  0.1026
  868SOL     OW 2738   2.471   2.080   0.995  0.3048 -0.3553  0.0988
  868SOL    HW1 2739   2.426   2.109   1.075  1.6790  1.2185  0.3312
  868SOL    HW2 2740   2.437   2.136   0.926  1.4174  0.4277  0.1651
  869SOL     OW 2741   0.821   0.557   2.917 -0.4074 -0.5036 -0.9415
  869SOL    HW1 2742   0.745   0.567   2.859  0.2597  0.8599 -1.6167
  869SOL    HW2 2743   0.897   0.575   2.862  0.1890  1.9588  0.5287
  870SOL     OW 2744   2.532   3.545   0.418  0.8087 -0.6529  0.3708
  870SOL    HW1 2745   2.480   3.466   0.430  2.2664 -1.6728  0.1890
  870SOL    HW2 2746   2.483   3.596   0.353 -0.4917 -1.0539  0.9902
  871SOL     OW 2747   2.511   1.308   2.866  0.6662 -0.1259 -0.1942
  871SOL    HW1 2748   2.518   1.285   2.773  1.1878  1.0097 -0.4541
  871SOL    HW2 2749   2.417   1.318   2.880  0.6155  0.2689 -0.7550
  872SOL     OW 2750   2.335   3.809   1.645 -0.5828  0.1193 -0.3121
  872SOL    HW1 2751   2.429   3.801   1.627 -0.2059 -1.9535  2.0183
  872SOL    HW2 2752   2.293   3.761   1.574  0.3729 -1.7339  0.3139
  873SOL     OW 2753   2.399   2.577   1.825 -0.0690  0.2315 -0.0637
  873SOL    HW1 2754   2.482   2.557   1.868  0.3372  0.7027 -0.6197
  873SOL    HW2 2755   2.332   2.551   1.888  0.4521 -1.7870 -0.2772
  874SOL     OW 2756   2.075   3.281   2.254  0.6386  0.1950  0.4419
  874SOL    HW1 2757   2.082   3.325   2.169  0.2015 -0.8849 -0.1743
  874SOL    HW2 2758   2.102   3.191   2.237 -1.7429 -0.6842  0.8783
  875SOL     OW 2759   3.510   1.066   0.686 -0.6753  0.4395 -0.1572
  875SOL    HW1 2760   3.567   1.006   0.637 -0.8260  1.1923 -1.2934
  875SOL    HW2 2761   3.432   1.014   0.706  0.9211 -1.1152  2.7917
  876SOL     OW 2762   0.067   2.182   2.156 -0.5945 -0.3833 -0.4813
  876SOL    HW1 2763   0.109   2.150   2.076 -1.1554  0.3345 -1.0817
  876SOL    HW2 2764   0.122   2.148   2.227  1.9738  1.7735 -1.2489
  877SOL     OW 2765   2.740   2.117   1.697  0.4083  0.2382 -0.2960
  877SOL    HW1 2766   2.785   2.077   1.623  0.2189  0.7558 -0.7026
  877SOL    HW2 2767   2.793   2.193   1.718 -1.8604  2.8308 -2.9058
  878SOL     OW 2768   0.026   0.806   0.243 -0.0720  0.0425  0.3784
  878SOL    HW1 2769  -0.022   0.723   0.239 -1.9472  1.0664  0.5418
  878SOL    HW2 2770   0.038   0.831   0.151  2.1417 -1.2514  0.2505
  879SOL     OW 2771   2.287   0.461   1.428  0.2115  0.0597  0.1615
  879SOL    HW1 2772   2.225   0.533   1.416 -0.9550 -0.6887  1.3952
  879SOL    HW2 2773   2.258   0.418   1.508  0.7310 -1.9271 -0.6649
  880SOL     OW 2774   1.835   1.322   1.793  0.0816 -1.1694  0.8535
  880SOL    HW1 2775   1.839   1.403   1.741  0.2262 -1.5531  0.2558
  880SOL    HW2 2776   1.780   1.345   1.868 -0.4360 -0.6997  0.3443
  881SOL     OW 2777   0.751   3.685   1.944 -0.5629  0.2551  0.2711
  881SOL    HW1 2778   0.670   3.683   1.894 -1.6479 -0.1214  1.9530
  881SOL    HW2 2779   0.780   3.593   1.947 -0.4215  0.2975  0.1994
  882SOL     OW 2780   1.267   1.200   2.063 -0.8179 -0.2860  0.2439
  882SOL    HW1 2781   1.281   1.150   2.143  1.1130 -0.2890 -0.0451
  882SOL    HW2 2782   1.339   1.174   2.005 -1.0196  1.1951 -0.7308
  883SOL     OW 2783   2.585   0.809   2.052 -0.1199  0.1495 -0.3013
  883SOL    HW1 2784   2.545   0.844   2.131  0.8616  1.4117 -0.3408
  883SOL    HW2 2785   2.622   0.885   2.007  3.5500 -0.9918  0.3986
  884SOL     OW 2786   3.038   0.268   0.439 -0.1933  0.2044  1.3715
  884SOL    HW1 2787   3.038   0.296   0.530  0.1649 -0.7299  1.6601
  884SOL    HW2 2788   3.042   0.173   0.442  1.3267  0.1881  0.3868
  885SOL     OW 2789   0.437   0.821   2.862  0.7685 -0.0400 -0.4861
  885SOL    HW1 2790   0.363   0.855   2.913  0.5920  1.2696 -1.5716
  885SOL    HW2 2791   0.403   0.741   2.822  0.2113  0.0896 -0.2934
  886SOL     OW 2792   3.242   2.383   2.952  0.3201 -0.4596  0.2878
  886SOL    HW1 2793   3.327   2.421   2.971 -0.7727  1.8804  0.8997
  886SOL    HW2 2794   3.218   2.335   3.031  1.3352 -1.7615 -0.1606
  887SOL     OW 2795   1.603   1.145   0.085 -0.0534 -0.3196  0.2690
  887SOL    HW1 2796   1.646   1.215   0.135 -0.1162  0.3013 -0.5274
  887SOL    HW2 2797   1.510   1.163   0.095 -0.0686 -0.2682  0.0418
  888SOL     OW 2798   0.913   1.423   3.438  0.3864 -0.3430  0.6615
  888SOL    HW1 2799   1.002   1.409   3.405  0.0190  0.1730 -0.6109
  888SOL    HW2 2800   0.856   1.396   3.366 -0.5910 -2.7788  2.2297
  889SOL     OW 2801   2.078   0.725   1.188 -0.0883  1.1497  0.2250
  889SOL    HW1 2802   2.121   0.647   1.152 -2.6500 -2.2446  3.6583
  889SOL    HW2 2803   2.001   0.738   1.132  0.1007  0.9287 -0.0941
  890SOL     OW 2804   0.560   3.932   0.195 -0.2102  1.0042  0.5586
  890SOL    HW1 2805   0.652   3.924   0.222  0.7677  1.5171 -2.2576
  890SOL    HW2 2806   0.528   4.009   0.242 -0.1466 -0.7475  3.7241
  891SOL     OW 2807   1.503   3.275   0.578  0.0538  0.1246  0.2669
  891SOL    HW1 2808   1.442   3.342   0.612  0.3546  0.3166  0.4322
  891SOL    HW2 2809   1.528   3.225   0.655  0.4377  0.3166  0.2699
  892SOL     OW 2810   0.896   1.794   0.639  0.4178 -0.8823 -1.0222
  892SOL    HW1 2811   0.842   1.737   0.585 -2.0117 -2.0939  2.3604
  892SOL    HW2 2812   0.944   1.734   0.697  0.4004  0.3881  0.3641
  893SOL     OW 2813   1.451   1.183   2.725 -0.3781  0.4422  0.1794
  893SOL    HW1 2814   1.541   1.187   2.692 -0.6123  0.0290 -0.5217
  893SOL    HW2 2815   1.398   1.225   2.658 -1.0672 -1.7942 -0.7896
  894SOL     OW 2816   3.071   0.059   1.020 -0.0708  0.2373  0.1656
  894SOL    HW1 2817   3.041   0.069   1.110 -0.0333 -1.5706  0.4318
  894SOL    HW2 2818   3.162   0.033   1.027 -0.1182 -0.1023 -0.3791
  895SOL     OW 2819   2.072   3.749   1.756  0.0510 -0.6980  0.1670
  895SOL    HW1 2820   2.158   3.759   1.714 -0.5513  0.5863 -0.8153
  895SOL    HW2 2821   2.091   3.759   1.850  0.8022  1.2058 -0.1332
  896SOL     OW 2822   2.633   3.799   2.832  0.2113  0.0442  0.2332
  896SOL    HW1 2823   2.650   3.801   2.926 -1.3868  0.2821  0.5533
  896SOL    HW2 2824   2.562   3.862   2.820 -0.3389 -0.7709 -0.9686
  897SOL     OW 2825   0.952   1.121   2.277 -0.4780 -0.2478  0.4906
  897SOL    HW1 2826   0.996   1.037   2.265  0.1009  0.0821  0.2801
  897SOL    HW2 2827   0.971   1.170   2.197 -0.5832  0.1848  0.7261
  898SOL     OW 2828   1.538   1.769   2.823  0.6091  0.3912 -0.6513
  898SOL    HW1 2829   1.450   1.734   2.809  1.1544 -0.1681 -3.3733
  898SOL    HW2 2830   1.553   1.761   2.917 -1.0126 -2.5633 -0.5320
  899SOL     OW 2831   2.660   1.699   0.709 -0.3919  0.2157  0.0951
  899SOL    HW1 2832   2.698   1.643   0.641  0.4483  1.6338 -0.6381
  899SOL    HW2 2833   2.736   1.731   0.758 -0.7735  1.4467 -0.0844
  900SOL     OW 2834   1.305   2.596   0.529  0.3348 -0.3894 -0.1860
  900SOL    HW1 2835   1.340   2.671   0.480  0.9775  0.9289  2.1311
  900SOL    HW2 2836   1.275   2.634   0.612 -0.9440 -2.4707  0.3692
  901SOL     OW 2837   0.929   1.036   2.591 -0.3801  0.2631  0.2843
  901SOL    HW1 2838   0.851   1.002   2.636  0.5352  1.0624  2.6196
  901SOL    HW2 2839   1.001   0.981   2.623  0.4010  1.2606  0.2799
  902SOL     OW 2840   3.329   0.999   1.699  0.1677 -0.3275 -0.0078
  902SOL    HW1 2841   3.325   0.904   1.699  4.4522 -0.7199  0.8048
  902SOL    HW2 2842   3.341   1.023   1.607  0.9843 -0.7786 -0.0260
  903SOL     OW 2843   2.784   1.286   2.825  0.1225  0.3428  0.2270
  903SOL    HW1 2844   2.719   1.295   2.895  1.4818  2.6699  1.2892
  903SOL    HW2 2845   2.868   1.291   2.869  1.0265  1.8863 -1.5660
  904SOL     OW 2846   3.603   2.390   1.917  0.9038  0.2206  0.2161
  904SOL    HW1 2847   3.593   2.439   1.999 -2.4789  1.2960 -0.6695
  904SOL    HW2 2848   3.523   2.338   1.911  1.9722 -1.3408 -1.5047
  905SOL     OW 2849   3.870   0.465   1.864  0.3953 -0.1043  0.0248
  905SOL    HW1 2850   3.873   0.504   1.777 -1.8111  0.4380  0.1317
  905SOL    HW2 2851   3.894   0.536   1.923 -0.4980  0.2376 -0.0040
  906SOL     OW 2852   0.319   2.197   1.054  0.1032  0.0982  0.2387
  906SOL    HW1 2853   0.304   2.144   1.132  0.3654  0.5118  0.5767
  906SOL    HW2 2854   0.406   2.234   1.067 -0.2265  0.9236  0.2046
  907SOL     OW 2855   2.105   1.051   0.875 -0.3902  0.2678  0.5316
  907SOL    HW1 2856   2.104   1.108   0.798 -0.7379 -0.3417  0.0775
  907SOL    HW2 2857   2.191   1.008   0.872 -1.1284 -1.1911 -0.6017
  908SOL     OW 2858   0.299   3.158   3.599 -0.2535  0.0613  0.5150
  908SOL    HW1 2859   0.293   3.204   3.515  0.2970  1.7699  1.3470
  908SOL    HW2 2860   0.390   3.129   3.603 -0.2749 -0.0042  0.5157
  909SOL     OW 2861   2.624   2.458   1.938 -0.2583 -0.1108  0.4567
  909SOL    HW1 2862   2.711   2.498   1.946 -0.7297  0.9768  0.3925
  909SOL    HW2 2863   2.628   2.380   1.993  0.6628  0.0804  0.6803
  910SOL     OW 2864   3.638   0.204   1.458  0.2825 -0.3049 -0.7472
  910SOL    HW1 2865   3.697   0.275   1.433  3.3699 -2.0048  1.0633
  910SOL    HW2 2866   3.633   0.210   1.554 -0.9856 -1.3863 -0.7171
  911SOL     OW 2867   3.299   3.510   1.938  0.2763 -0.1971 -0.1392
  911SOL    HW1 2868   3.354   3.515   1.860 -0.0938  0.2636 -0.3709
  911SOL    HW2 2869   3.273   3.600   1.955  0.0245 -0.3474  0.2820
  912SOL     OW 2870   0.136   0.417   0.979  0.1947 -0.0513  0.0798
  912SOL    HW1 2871   0.053   0.400   0.935  1.5400 -1.2214 -2.1701
  912SOL    HW2 2872   0.145   0.512   0.977 -0.9413  0.0699  0.1101
  913SOL     OW 2873   3.201   0.868   0.125  0.5375 -0.0837 -0.5386
  913SOL    HW1 2874   3.291   0.884   0.096  0.9566 -1.4065 -0.0624
  913SOL    HW2 2875   3.147   0.892   0.050  1.0893  2.6384 -0.1875
  914SOL     OW 2876   2.104   0.643   1.444 -0.2219  0.3623 -0.1055
  914SOL    HW1 2877   2.091   0.699   1.368  1.4395  0.5757 -0.2801
  914SOL    HW2 2878   2.038   0.575   1.435  1.2333 -0.8762 -2.9848
  915SOL     OW 2879   2.072   1.042   1.438  0.7198  0.0082  0.4829
  915SOL    HW1 2880   2.016   0.975   1.399  1.2834  0.2972 -0.8851
  915SOL    HW2 2881   2.132   0.994   1.495 -1.3641 -0.2384  2.6371
  916SOL     OW 2882   0.643   1.732   3.350 -0.4450 -0.9250 -0.2094
  916SOL    HW1 2883   0.688   1.750   3.433 -0.7095  0.3899 -0.3149
  916SOL    HW2 2884   0.579   1.664   3.371 -1.3140  0.1851  0.9881
  917SOL     OW 2885   0.679   2.097   1.802 -0.2459  0.0004  0.7466
  917SOL    HW1 2886   0.676   2.156   1.727 -1.3043 -0.0580  0.7179
  917SOL    HW2 2887   0.593   2.054   1.801  0.3036 -1.1342  1.0902
  918SOL     OW 2888   0.162   0.286   2.380  0.1119  0.5356  0.0964
  918SOL    HW1 2889   0.247   0.316   2.413  0.5299  0.8023 -1.1749
  918SOL    HW2 2890   0.181   0.254   2.292 -0.9073 -0.5128  0.2466
  919SOL     OW 2891   0.364   1.365   1.784  0.0543 -0.5419  0.2922
  919SOL    HW1 2892   0.332   1.332   1.868  0.0984  1.4229  1.1480
  919SOL    HW2 2893   0.457   1.384   1.800 -0.2125  0.9784  0.2315
  920SOL     OW 2894   2.658   2.000   2.275 -0.1455  0.2504 -0.3391
  920SOL    HW1 2895   2.567   1.991   2.249 -1.1124  1.2423  2.3202
  920SOL    HW2 2896   2.677   1.920   2.324 -0.2825  0.8727  0.7845
  921SOL     OW 2897   2.618   3.551   2.423 -0.3295  0.2195  0.2030
  921SOL    HW1 2898   2.692   3.556   2.484 -0.6233  1.2092  0.4982
  921SOL    HW2 2899   2.540   3.551   2.479 -0.5764 -1.2415 -0.0825
  922SOL     OW 2900   0.682   2.596   3.081  0.2199  0.1866  0.2820
  922SOL    HW1 2901   0.593   2.575   3.050 -0.6282  2.9801  0.5742
  922SOL    HW2 2902   0.695   2.537   3.156 -2.0610  0.7652  1.2155
  923SOL     OW 2903   3.497   3.163   2.127  0.2617  0.2087  0.7910
  923SOL    HW1 2904   3.502   3.182   2.033  1.7560  0.8080  0.9717
  923SOL    HW2 2905   3.461   3.074   2.132  0.2781  0.1271 -0.3501
  924SOL     OW 2906   1.661   1.788   0.544 -0.7757 -0.9443 -0.3267
  924SOL    HW1 2907   1.609   1.804   0.623 -4.0759 -4.7691 -1.4357
  924SOL    HW2 2908   1.721   1.718   0.569 -1.6111 -1.9445 -1.0666
  925SOL     OW 2909   3.092   0.885   2.845  0.8521  0.4567 -0.9639
  925SOL    HW1 2910   3.110   0.791   2.840  0.9045  0.4609 -0.8485
  925SOL    HW2 2911   3.003   0.890   2.881  0.6343  0.4375 -1.4853
  926SOL     OW 2912   3.634   2.700   0.008 -0.5706 -0.7547  0.5125
  926SOL    HW1 2913   3.722   2.707  -0.029 -0.7156  0.9800  0.4067
  926SOL    HW2 2914   3.633   2.615   0.052  0.3602 -1.8703 -1.4678
  927SOL     OW 2915   1.199   0.653   3.685 -0.5026  0.3192  0.6254
  927SOL    HW1 2916   1.232   0.593   3.617 -0.1439  1.9656 -0.7294
  927SOL    HW2 2917   1.240   0.737   3.665 -2.9518  1.6824  0.8520
  928SOL     OW 2918   2.548   1.558   3.042 -0.0123 -0.9541  0.4243
  928SOL    HW1 2919   2.563   1.585   2.951 -1.8664 -0.7751  0.1269
  928SOL    HW2 2920   2.526   1.465   3.036  1.2648 -1.2982  0.8668
  929SOL     OW 2921   0.997   1.448   3.861  0.6733  0.0500  0.0664
  929SOL    HW1 2922   1.015   1.353   3.865  0.0414 -0.0810 -0.1826
  929SOL    HW2 2923   0.929   1.457   3.795  0.6319  0.6710  0.1897
  930SOL     OW 2924   1.515   0.327   3.367 -0.0102 -0.1363 -0.1310
  930SOL    HW1 2925   1.567   0.382   3.425 -0.0664  0.1294 -0.3336
  930SOL    HW2 2926   1.445   0.293   3.423 -2.3299  3.0809 -0.7885
  931SOL     OW 2927   3.650   1.416   1.548 -0.4337  0.3789  0.1896
  931SOL    HW1 2928   3.579   1.425   1.484 -1.1271  2.3246  1.1702
  931SOL    HW2 2929   3.718   1.474   1.516 -1.1718  2.1469  1.6536
  932SOL     OW 2930   2.759   0.661   2.219 -0.3122  0.5712 -0.1279
  932SOL    HW1 2931   2.739   0.656   2.126 -2.3259  1.1983  0.2194
  932SOL    HW2 2932   2.673   0.662   2.262  0.5410  1.4344  1.6697
  933SOL     OW 2933   1.488   3.666   1.003  0.3787  0.7370  0.6017
  933SOL    HW1 2934   1.455   3.576   1.003 -0.3445  0.9646 -1.0173
  933SOL    HW2 2935   1.551   3.668   1.075  0.8324 -1.2191  0.3250
  934SOL     OW 2936   1.637   3.606   1.244 -0.5949  0.3203  0.2165
  934SOL    HW1 2937   1.587   3.653   1.310 -0.3486  1.0240 -0.0933
  934SOL    HW2 2938   1.677   3.534   1.292 -0.6436  0.6585  0.7758
  935SOL     OW 2939   3.388   1.155   0.100  0.4398  0.4313  0.6600
  935SOL    HW1 2940   3.412   1.076   0.051  1.4469  1.6879 -0.9896
  935SOL    HW2 2941   3.407   1.133   0.191 -0.8966 -1.7801  0.4759
  936SOL     OW 2942   2.699   0.573   1.475  0.7397  0.4083  0.0088
  936SOL    HW1 2943   2.623   0.544   1.525  0.9417  0.0403  0.1048
  936SOL    HW2 2944   2.681   0.665   1.457  0.4237  0.4123  0.3155
  937SOL     OW 2945   1.958   3.892   1.182  0.2694  0.1289 -0.0552
  937SOL    HW1 2946   1.999   3.882   1.267  0.0287 -0.6254 -0.0285
  937SOL    HW2 2947   1.864   3.895   1.200  0.2309  0.2541 -0.2678
  938SOL     OW 2948   0.378   2.147   2.626 -0.2691 -0.3475 -0.0244
  938SOL    HW1 2949   0.450   2.139   2.688  0.2997  1.9810 -0.2845
  938SOL    HW2 2950   0.315   2.205   2.669 -0.6147 -0.0028 -0.9646
  939SOL     OW 2951   0.778   3.834   3.569 -0.4012 -0.4494 -0.0370
  939SOL    HW1 2952   0.700   3.847   3.622 -0.6242  0.8443 -0.6265
  939SOL    HW2 2953   0.798   3.922   3.535  0.5763 -0.9856 -0.9001
  940SOL     OW 2954   0.783   0.535   3.621  0.0271  0.1060  0.2809
  940SOL    HW1 2955   0.839   0.463   3.591 -0.9215  0.4699 -2.6481
  940SOL    HW2 2956   0.695   0.498   3.623 -0.1597  0.5760  1.0293
  941SOL     OW 2957   2.593   1.016   3.364 -0.0271  0.4253  0.5806
  941SOL    HW1 2958   2.672   1.011   3.418  0.0157 -0.2692  0.4594
  941SOL    HW2 2959   2.622   1.055   3.282  0.1849  0.2046  0.5502
  942SOL     OW 2960   1.900   0.454   0.049  0.0200 -0.1856 -0.0881
  942SOL    HW1 2961   1.934   0.374   0.088 -0.3674 -1.2259 -1.7594
  942SOL    HW2 2962   1.933   0.524   0.104  1.1632 -1.4309  0.8722
  943SOL     OW 2963   3.355   3.689   2.779 -0.3430 -0.2497  0.6805
  943SOL    HW1 2964   3.419   3.757   2.757 -0.2212  0.2791  2.5068
  943SOL    HW2 2965   3.359   3.628   2.706  1.1377  0.5699  0.0285
  944SOL     OW 2966   3.810   2.263   3.490 -0.1109  0.5863  0.1848
  944SOL    HW1 2967   3.896   2.232   3.520 -0.8184 -1.4711  0.2623
  944SOL    HW2 2968   3.748   2.204   3.533 -1.4180  0.4154 -1.8218
  945SOL     OW 2969   1.262   1.287   0.373  0.2146 -0.1527  0.7852
  945SOL    HW1 2970   1.330   1.260   0.312 -0.9275 -0.7184 -0.2774
  945SOL    HW2 2971   1.308   1.303   0.456  1.9217  1.3084 -0.3626
  946SOL     OW 2972   2.933   1.158   3.354  0.0796  0.6297 -1.1610
  946SOL    HW1 2973   2.877   1.116   3.419  1.2364  1.6706  0.5762
  946SOL    HW2 2974   2.916   1.108   3.273 -0.9466 -1.1050  0.0397
  947SOL     OW 2975   0.324   1.441   0.371 -0.1355 -0.2727 -0.8623
  947SOL    HW1 2976   0.319   1.498   0.294 -0.4058 -0.4900 -1.0044
  947SOL    HW2 2977   0.391   1.376   0.348 -1.1184 -1.1075 -1.4265
  948SOL     OW 2978   3.111   0.248   2.091  0.4263 -0.0398  0.6558
  948SOL    HW1 2979   3.038   0.301   2.124 -0.4734 -1.1598  0.5265
  948SOL    HW2 2980   3.088   0.158   2.115  0.0176 -0.8806 -2.4577
  949SOL     OW 2981   2.627   3.088   1.501 -0.2855 -0.1420  0.1630
  949SOL    HW1 2982   2.712   3.103   1.460  0.0992 -0.5273  0.8135
  949SOL    HW2 2983   2.568   3.073   1.427  0.1633  0.3189 -0.3028
  950SOL     OW 2984   3.160   1.332   2.687  0.5622 -0.0969 -0.0745
  950SOL    HW1 2985   3.223   1.383   2.738 -0.7926  2.7180 -1.0125
  950SOL    HW2 2986   3.092   1.307   2.749 -1.6024  4.1688 -0.3593
  951SOL     OW 2987   3.216   0.297   2.558 -0.1880 -0.2516  0.2113
  951SOL    HW1 2988   3.292   0.274   2.505  1.1721 -1.0523  2.3764
  951SOL    HW2 2989   3.167   0.216   2.566  0.1621 -0.3902  1.0042
  952SOL     OW 2990   2.172   1.585   0.019 -0.1512  0.4778 -0.3467
  952SOL    HW1 2991   2.159   1.578   0.113  0.1180 -0.1969 -0.3588
  952SOL    HW2 2992   2.100   1.642  -0.011  0.5416  1.8097  0.4415
  953SOL     OW 2993   0.989   2.839   2.637 -0.7806  0.3029  0.3337
  953SOL    HW1 2994   0.941   2.891   2.701 -0.5511  2.2151 -0.9504
  953SOL    HW2 2995   1.053   2.790   2.688 -1.8060  0.3464  1.7224
  954SOL     OW 2996   2.681   0.019   1.664  0.2832 -0.0359  0.2381
  954SOL    HW1 2997   2.607   0.071   1.696 -1.1729 -1.7714 -0.0815
  954SOL    HW2 2998   2.734   0.080   1.613 -2.5075  0.7531 -1.9889
  955SOL     OW 2999   2.940   3.846   1.906  0.0355 -0.0908  0.2788
  955SOL    HW1 3000   2.892   3.915   1.862 -1.1140 -2.6431 -2.9128
  955SOL    HW2 3001   2.885   3.821   1.981  0.4139  2.1864  1.4009
  956SOL     OW 3002   2.961   3.322   2.316 -0.3649 -0.0330  0.5664
  956SOL    HW1 3003   3.029   3.309   2.383  1.7334 -0.4375 -1.5137
  956SOL    HW2 3004   2.992   3.396   2.264 -2.5866  1.0890  0.7225
  957SOL     OW 3005   0.222   1.768   2.435 -0.3172 -0.1311  0.2660
  957SOL    HW1 3006   0.190   1.786   2.524 -1.9093 -0.7054 -0.1707
  957SOL    HW2 3007   0.177   1.689   2.409  0.3767 -0.1426 -0.9627
  958SOL     OW 3008   0.920   2.509   1.570 -0.2108  0.3836 -0.1933
  958SOL    HW1 3009   0.977   2.454   1.624 -1.9128 -1.5358 -0.2224
  958SOL    HW2 3010   0.950   2.493   1.480 -0.3731 -0.1418 -0.1613
  959SOL     OW 3011   1.908   2.165   3.793  0.3123  0.0791  0.5954
  959SOL    HW1 3012   1.905   2.106   3.717  0.7044  1.0953 -0.2242
  959SOL    HW2 3013   1.951   2.244   3.761  0.8322  0.3933  1.9834
  960SOL     OW 3014   0.298   2.930   1.252 -0.4929 -0.1304 -0.7985
  960SOL    HW1 3015   0.249   2.852   1.228 -0.2888  0.2017 -2.4702
  960SOL    HW2 3016   0.361   2.941   1.180  0.2880  0.8892  0.0134
  961SOL     OW 3017   1.271   0.492   2.672 -0.5562 -0.4303 -0.1531
  961SOL    HW1 3018   1.335   0.524   2.736  0.1697 -1.4643 -0.3310
  961SOL    HW2 3019   1.318   0.491   2.589 -1.0652 -0.4033 -0.4450
  962SOL     OW 3020   3.663   0.731   0.800  0.1851 -0.6751  0.0578
  962SOL    HW1 3021   3.657   0.797   0.869  2.6025 -0.4731  0.1461
  962SOL    HW2 3022   3.671   0.781   0.719 -0.6972 -0.9047 -0.1831
  963SOL     OW 3023   3.533   1.189   1.251 -0.2319  0.3157 -0.7888
  963SOL    HW1 3024   3.567   1.112   1.296  0.7408  0.9398 -0.4166
  963SOL    HW2 3025   3.573   1.187   1.164 -1.8879 -0.7339 -1.5785
  964SOL     OW 3026   2.036   0.730   2.478  0.4953  0.0209  0.3729
  964SOL    HW1 3027   2.012   0.641   2.453  0.0158  0.7254 -1.9085
  964SOL    HW2 3028   2.130   0.735   2.461  0.4450  0.0681  0.1096
  965SOL     OW 3029   0.595   1.157   3.616 -0.0160 -0.4581  0.6082
  965SOL    HW1 3030   0.652   1.151   3.539 -0.0670  0.8378  0.4331
  965SOL    HW2 3031   0.654   1.183   3.687  0.0464 -1.7462  1.0462
  966SOL     OW 3032   1.019   3.756   1.203 -1.1408  0.0973  0.0422
  966SOL    HW1 3033   0.980   3.706   1.131 -1.8198 -1.8207  1.6367
  966SOL    HW2 3034   1.089   3.806   1.162 -1.2103 -1.2479 -1.8756
  967SOL     OW 3035   3.864   1.325   1.673 -0.5139  0.6862  0.3432
  967SOL    HW1 3036   3.856   1.264   1.746  0.2181 -1.2259 -1.1001
  967SOL    HW2 3037   3.779   1.321   1.629 -0.2974  0.3009 -0.0467
  968SOL     OW 3038   2.762   3.236   2.709 -0.3134 -0.4200  0.1046
  968SOL    HW1 3039   2.741   3.230   2.802 -1.3567 -0.0530 -0.1035
  968SOL    HW2 3040   2.694   3.290   2.671  2.1959  2.8219 -0.2247
  969SOL     OW 3041   3.878   3.307   1.956 -0.7479  0.7327 -0.1997
  969SOL    HW1 3042   3.830   3.349   2.027 -0.9443 -2.1099  1.5161
  969SOL    HW2 3043   3.829   3.226   1.939  0.2033  0.5739 -2.4933
  970SOL     OW 3044   0.448   1.082   2.401  0.4390  0.3364 -1.0864
  970SOL    HW1 3045   0.536   1.097   2.368  1.5141  0.1513  1.4694
  970SOL    HW2 3046   0.456   1.092   2.496 -1.3752 -3.7155 -0.2895
  971SOL     OW 3047   2.032   1.059   3.057  0.1974 -0.2655 -0.2772
  971SOL    HW1 3048   2.123   1.072   3.083  0.9028 -2.5339 -1.3183
  971SOL    HW2 3049   1.998   0.996   3.121  0.0606 -1.1018 -1.1430
  972SOL     OW 3050   2.700   2.097   0.300  0.3159  0.1062 -0.9978
  972SOL    HW1 3051   2.750   2.029   0.346 -1.9386 -0.2030  1.1707
  972SOL    HW2 3052   2.642   2.049   0.241 -0.3497  0.2220 -0.4401
  973SOL     OW 3053   1.873   0.858   0.170 -0.2946  0.2499  0.6204
  973SOL    HW1 3054   1.962   0.827   0.186 -0.3235 -0.4960 -0.5722
  973SOL    HW2 3055   1.885   0.942   0.125 -0.1897 -0.0368  0.1105
  974SOL     OW 3056   1.899   1.878   3.312  0.3210 -0.2458 -0.1092
  974SOL    HW1 3057   1.956   1.801   3.319  0.2654 -0.3409 -0.6726
  974SOL    HW2 3058   1.811   1.844   3.326  0.4500  0.0517  1.7724
  975SOL     OW 3059   1.492   1.421   1.271  0.2334 -1.0357 -0.2536
  975SOL    HW1 3060   1.473   1.340   1.222  0.2898 -1.2956  0.1485
  975SOL    HW2 3061   1.409   1.443   1.313  0.7605 -2.1613  1.4895
  976SOL     OW 3062   1.486   0.000   0.162 -1.3126  0.2568  0.0917
  976SOL    HW1 3063   1.578  -0.020   0.177 -1.7642 -1.3808  0.8088
  976SOL    HW2 3064   1.467   0.073   0.221 -0.5796  0.3793  0.1839
  977SOL     OW 3065   2.306   0.816   2.479 -0.6101 -0.4798  0.2115
  977SOL    HW1 3066   2.358   0.796   2.557 -0.6753  1.0391  0.6795
  977SOL    HW2 3067   2.231   0.865   2.512 -1.1619 -0.6892 -0.7040
  978SOL     OW 3068   2.365   1.826   1.647 -0.0072  0.0470  0.5948
  978SOL    HW1 3069   2.427   1.776   1.595 -0.5958  1.2428 -1.3922
  978SOL    HW2 3070   2.279   1.798   1.615 -0.3844  0.8184  0.9063
  979SOL     OW 3071   2.660   0.424   0.408  0.4581  0.8477  0.3832
  979SOL    HW1 3072   2.678   0.347   0.463  1.3555  1.5389  1.0877
  979SOL    HW2 3073   2.746   0.465   0.396  0.5166  0.1245 -2.4815
  980SOL     OW 3074   2.957   0.568   0.760  0.3064  0.0945  0.0549
  980SOL    HW1 3075   2.972   0.518   0.680  1.6964  0.1241  0.2748
  980SOL    HW2 3076   3.022   0.534   0.822  0.3993  1.2688  0.6229
  981SOL     OW 3077   0.271   3.343   3.403 -0.2007 -0.2506  0.3358
  981SOL    HW1 3078   0.204   3.406   3.430  0.4965  0.4114  0.5984
  981SOL    HW2 3079   0.274   3.350   3.308  0.9260  1.2925  0.4363
  982SOL     OW 3080   2.908   0.589   3.341  0.4554 -0.0081 -0.2564
  982SOL    HW1 3081   2.879   0.671   3.379  0.0064 -0.8786  1.3860
  982SOL    HW2 3082   2.875   0.590   3.251  1.2049  1.9534 -0.5527
  983SOL     OW 3083   2.715   0.758   3.198 -1.0811 -0.4602 -0.2437
  983SOL    HW1 3084   2.695   0.849   3.221 -1.2626 -0.5374 -0.0957
  983SOL    HW2 3085   2.694   0.752   3.105  2.3265  0.6247 -1.2243
  984SOL     OW 3086   3.441   3.494   0.386 -0.0248 -0.0949  0.4107
  984SOL    HW1 3087   3.462   3.586   0.399  0.4681 -0.0963 -0.3053
  984SOL    HW2 3088   3.438   3.483   0.291 -3.1313 -0.1621  0.4163
  985SOL     OW 3089   2.236   0.485   2.389  0.2505 -0.2132 -0.1467
  985SOL    HW1 3090   2.274   0.427   2.455  0.6765  3.5697  3.3476
  985SOL    HW2 3091   2.304   0.551   2.374 -0.5946  0.1206 -3.0345
  986SOL     OW 3092   1.971   1.885   3.652 -0.2118 -0.7615 -0.2834
  986SOL    HW1 3093   1.884   1.856   3.679  0.1048 -1.7891 -0.3258
  986SOL    HW2 3094   1.984   1.844   3.567  0.3598 -0.7197 -0.2156
  987SOL     OW 3095   2.593   3.791   2.214  0.4061  0.4376 -0.2106
  987SOL    HW1 3096   2.623   3.740   2.290 -1.9256  0.0204  0.5081
  987SOL    HW2 3097   2.632   3.877   2.227  2.1557 -0.3492  0.0467
  988SOL     OW 3098   2.175   2.468   0.733 -0.4242 -0.3250  0.5875
  988SOL    HW1 3099   2.085   2.474   0.704 -0.5892  0.9663  1.2898
  988SOL    HW2 3100   2.227   2.465   0.653 -1.0855 -1.1186  0.1835
  989SOL     OW 3101   1.737   0.188   0.606 -0.3700  0.8556 -0.2666
  989SOL    HW1 3102   1.648   0.217   0.625 -0.3261  0.1766  1.0597
  989SOL    HW2 3103   1.744   0.103   0.648  0.2510 -0.0794 -2.1303
  990SOL     OW 3104   3.731   2.189   0.720 -0.1403 -0.1962 -0.7511
  990SOL    HW1 3105   3.735   2.282   0.696  1.8330 -0.1749 -0.5447
  990SOL    HW2 3106   3.660   2.183   0.784 -0.4917  1.1133 -0.9879
  991SOL     OW 3107   0.410   3.584   2.373  0.2507  0.0108  0.3255
  991SOL    HW1 3108   0.480   3.562   2.434  0.9658  2.2786  0.4109
  991SOL    HW2 3109   0.443   3.554   2.288  0.5688 -0.4588  0.6093
  992SOL     OW 3110   3.481   2.163   0.860 -0.3505  0.0032  0.5514
  992SOL    HW1 3111   3.430   2.239   0.834 -2.4471 -0.9047  1.7925
  992SOL    HW2 3112   3.435   2.089   0.820  2.4599 -0.6418 -1.8811
  993SOL     OW 3113   3.481   0.798   2.046 -0.3538 -0.6195  0.3223
  993SOL    HW1 3114   3.485   0.871   1.985 -2.6429  2.4820  3.5249
  993SOL    HW2 3115   3.389   0.790   2.068  0.0971 -3.2040  1.6493
  994SOL     OW 3116   0.738   1.821   0.898 -0.5104 -0.1753 -0.0497
  994SOL    HW1 3117   0.731   1.878   0.822  0.4106  0.8537  0.5970
  994SOL    HW2 3118   0.755   1.734   0.862  0.9387  0.4661 -1.0140
  995SOL     OW 3119   1.054   2.674   0.870 -0.3745  0.0757  0.3545
  995SOL    HW1 3120   1.134   2.664   0.818 -0.4530 -0.7202  0.3789
  995SOL    HW2 3121   1.075   2.633   0.954 -0.8517 -0.2437  0.3167
  996SOL     OW 3122   0.539   1.421   0.723  0.0464  0.4406  0.6668
  996SOL    HW1 3123   0.470   1.485   0.742  0.2889  1.6115 -1.9087
  996SOL    HW2 3124   0.513   1.384   0.639  2.2290  0.4697 -0.0696
  997SOL     OW 3125   1.382   3.299   2.847  0.0916 -0.9104  0.4999
  997SOL    HW1 3126   1.306   3.268   2.896  0.0056 -1.5549 -0.0255
  997SOL    HW2 3127   1.437   3.342   2.913 -0.8437 -0.2077  0.8359
  998SOL     OW 3128   3.604   1.564   3.853  0.2520  0.2899  0.2034
  998SOL    HW1 3129   3.521   1.527   3.882 -0.0035  0.5976 -0.1377
  998SOL    HW2 3130   3.630   1.511   3.778  0.2120  0.3859  0.1214
  999SOL     OW 3131   3.687   1.565   1.224  0.6422 -0.3331 -0.3834
  999SOL    HW1 3132   3.748   1.496   1.253  0.3910 -0.5917 -0.4628
  999SOL    HW2 3133   3.601   1.536   1.254  0.7153  0.6704  0.8526
 1000SOL     OW 3134   0.152   3.191   3.160  0.1959 -0.7125  0.8392
 1000SOL    HW1 3135   0.080   3.236   3.116 -0.9796 -3.2830 -0.0247
 1000SOL    HW2 3136   0.110   3.146   3.234  1.3870 -0.2237  1.8562
 1001SOL     OW 3137   2.872   1.065   2.277  0.3224  0.6325  0.7316
 1001SOL    HW1 3138   2.929   1.087   2.351 -0.0648 -0.4109  1.3745
 1001SOL    HW2 3139   2.886   0.971   2.264  0.0864  0.7296 -0.2767
 1002SOL     OW 3140   0.363   3.516   0.526  0.4323 -0.0847  0.1055
 1002SOL    HW1 3141   0.404   3.431   0.508  0.4229 -0.1014  0.1635
 1002SOL    HW2 3142   0.427   3.580   0.495  1.1969 -0.0764  1.6227
 1003SOL     OW 3143   2.602   1.344   0.844  0.0566  0.5138 -0.0595
 1003SOL    HW1 3144   2.662   1.324   0.773 -0.4669  2.5919 -1.1579
 1003SOL    HW2 3145   2.515   1.328   0.808 -0.1652 -0.4340  0.8317
 1004SOL     OW 3146   1.353   3.808   3.578  0.0624  0.3202 -0.3887
 1004SOL    HW1 3147   1.428   3.770   3.532  0.2151 -1.7378  1.3848
 1004SOL    HW2 3148   1.383   3.817   3.669 -1.4479  0.6295  0.1062
 1005SOL     OW 3149   0.995   1.176   3.893  0.4259 -0.5220  0.0590
 1005SOL    HW1 3150   0.934   1.201   3.962  1.4015 -0.2399  0.8558
 1005SOL    HW2 3151   0.947   1.113   3.839 -0.5192 -0.3817  0.7134
 1006SOL     OW 3152   3.618   3.519   3.075  0.6372 -0.4841  0.3284
 1006SOL    HW1 3153   3.617   3.463   2.997  0.3469  0.1887 -0.1505
 1006SOL    HW2 3154   3.683   3.587   3.055 -0.3586  0.4346  0.1436
 1007SOL     OW 3155   3.088   1.069   3.670  0.1068 -0.3828 -0.8116
 1007SOL    HW1 3156   3.015   1.018   3.634  0.7169 -0.7449 -1.5708
 1007SOL    HW2 3157   3.091   1.044   3.762 -0.6736 -0.4251 -0.7867
 1008SOL     OW 3158   3.403   2.905   2.101  0.0087  0.2186  0.5105
 1008SOL    HW1 3159   3.330   2.882   2.044 -0.3827  0.2330  0.9935
 1008SOL    HW2 3160   3.454   2.825   2.109  0.0609  0.2147  0.1522
 1009SOL     OW 3161   2.891   1.150   1.969  0.1874  0.2100  0.0242
 1009SOL    HW1 3162   2.901   1.171   2.062  1.5848  2.3309 -0.5345
 1009SOL    HW2 3163   2.976   1.113   1.944  0.3841  1.1200 -0.7223
 1010SOL     OW 3164   1.374   2.574   2.767  0.1726 -0.1592 -0.6707
 1010SOL    HW1 3165   1.423   2.493   2.785  0.7382  0.1821 -0.6487
 1010SOL    HW2 3166   1.366   2.616   2.852  0.3441  0.0635 -0.7639
 1011SOL     OW 3167   1.236   3.405   2.350 -0.0113  0.1223  0.0049
 1011SOL    HW1 3168   1.272   3.366   2.270 -0.1908  0.4690 -0.2518
 1011SOL    HW2 3169   1.298   3.382   2.419 -1.3152 -2.6989  0.3638
 1012SOL     OW 3170   2.024   2.095   1.388 -0.9086 -0.3451 -0.1729
 1012SOL    HW1 3171   2.035   2.160   1.318 -1.4560 -0.4195 -0.3299
 1012SOL    HW2 3172   2.004   2.014   1.342 -1.0379 -0.4442  0.0593
 1013SOL     OW 3173   3.622   1.185   2.275 -0.4780  0.7345 -0.0850
 1013SOL    HW1 3174   3.659   1.229   2.198 -1.6696  1.3213 -0.3522
 1013SOL    HW2 3175   3.587   1.256   2.329  1.6906  0.4743  1.8028
 1014SOL     OW 3176   1.161   2.445   3.175  0.0139 -0.3504 -0.3727
 1014SOL    HW1 3177   1.236   2.441   3.116  0.6500 -0.4778  0.4270
 1014SOL    HW2 3178   1.089   2.407   3.125  0.8271 -1.6049 -0.6534
 1015SOL     OW 3179   3.029   0.109   2.559 -0.2291  0.1899  0.2700
 1015SOL    HW1 3180   3.103   0.072   2.607  0.5624  1.1697 -0.1515
 1015SOL    HW2 3181   2.968   0.036   2.547  2.3684 -1.7309 -2.7854
 1016SOL     OW 3182   3.717   0.407   3.127 -0.1466  0.3677 -0.3558
 1016SOL    HW1 3183   3.624   0.419   3.146  0.2329  2.6003  0.2702
 1016SOL    HW2 3184   3.727   0.436   3.036 -0.3860 -2.0232 -1.2409
 1017SOL     OW 3185   2.799   3.801   3.860  0.0771  0.5394  0.3402
 1017SOL    HW1 3186   2.884   3.800   3.906  0.4166  0.0673 -0.2807
 1017SOL    HW2 3187   2.735   3.812   3.930  0.5546 -0.6139  0.9977
 1018SOL     OW 3188   1.926   2.981   1.422 -0.4588  0.2764 -0.2257
 1018SOL    HW1 3189   1.854   2.922   1.445  0.9949 -2.4325 -2.0318
 1018SOL    HW2 3190   1.988   2.972   1.495  0.0147 -0.9632 -0.7565
 1019SOL     OW 3191   1.092   1.174   2.849 -0.0507 -0.5309 -0.1051
 1019SOL    HW1 3192   1.174   1.155   2.896  1.7433  2.3778 -1.7728
 1019SOL    HW2 3193   1.120   1.188   2.758 -2.2935  1.2401 -0.5885
 1020SOL     OW 3194   1.101   3.307   2.821  0.1408 -0.1820 -0.7141
 1020SOL    HW1 3195   1.053   3.348   2.749  2.4731  1.1872 -1.5967
 1020SOL    HW2 3196   1.124   3.380   2.879  0.7890 -0.8497 -0.1128
 1021SOL     OW 3197   0.848   1.495   1.079 -0.5518  0.2322 -0.0423
 1021SOL    HW1 3198   0.791   1.559   1.121  1.1778  1.7494  0.1223
 1021SOL    HW2 3199   0.850   1.521   0.987 -0.5016 -0.1131 -0.1412
 1022SOL     OW 3200   3.220   1.792   1.642 -0.5478  0.3004  0.0102
 1022SOL    HW1 3201   3.151   1.833   1.693 -2.3604  0.8876 -2.6677
 1022SOL    HW2 3202   3.287   1.860   1.632 -1.2539  0.9636 -0.3078
 1023SOL     OW 3203   3.897   2.713   3.897  0.0413  0.0522  0.2128
 1023SOL    HW1 3204   3.948   2.661   3.959  1.2544  1.2125  0.2267
 1023SOL    HW2 3205   3.959   2.777   3.862 -0.8943  0.1559 -1.3693
 1024SOL     OW 3206   1.647   0.069   2.333 -0.2149  0.3490  0.5733
 1024SOL    HW1 3207   1.587   0.125   2.285 -0.0383  0.5631  0.6013
 1024SOL    HW2 3208   1.717   0.049   2.271 -0.0591  0.5098  0.6953
 1025SOL     OW 3209   3.718   3.668   0.883 -0.5060  0.3192 -0.3539
 1025SOL    HW1 3210   3.686   3.675   0.972 -0.8754  3.3543 -0.6164
 1025SOL    HW2 3211   3.801   3.621   0.891 -1.2969 -0.9030  1.3136
 1026SOL     OW 3212   1.476   0.607   0.269 -0.0775 -0.2763  0.3509
 1026SOL    HW1 3213   1.458   0.540   0.335 -0.7123  0.6698  1.1825
 1026SOL    HW2 3214   1.571   0.607   0.261 -0.0294 -0.8309  0.8203
 1027SOL     OW 3215   1.707   2.618   3.670  0.7709 -0.1288  0.2278
 1027SOL    HW1 3216   1.746   2.689   3.619  0.3741  0.1724  0.3354
 1027SOL    HW2 3217   1.758   2.541   3.648  0.6659  0.0167 -0.5436
 1028SOL     OW 3218   1.248   1.837   2.302 -0.0962  0.0738 -0.0772
 1028SOL    HW1 3219   1.303   1.915   2.293  1.5122 -1.0795 -0.5910
 1028SOL    HW2 3220   1.309   1.767   2.326 -1.6550 -0.8301  1.4241
 1029SOL     OW 3221   0.779   1.611   0.485 -0.3330 -0.5740 -0.3114
 1029SOL    HW1 3222   0.815   1.523   0.497  1.0987 -0.2221 -1.6820
 1029SOL    HW2 3223   0.738   1.609   0.398 -0.6518  0.0073 -0.1835
 1030SOL     OW 3224   0.787   2.086   1.435 -0.5647 -0.2888  0.3220
 1030SOL    HW1 3225   0.861   2.119   1.384 -0.2562 -1.5751 -0.1068
 1030SOL    HW2 3226   0.737   2.164   1.458 -0.8024  0.3666 -2.0935
 1031SOL     OW 3227   0.801   3.792   3.010 -0.0899 -0.5399 -0.1251
 1031SOL    HW1 3228   0.857   3.835   2.945 -1.9498  1.7496 -0.3546
 1031SOL    HW2 3229   0.820   3.838   3.092 -0.4105 -0.9153  0.1601
 1032SOL     OW 3230   3.485   0.391   0.423  0.1354 -0.6163 -0.2157
 1032SOL    HW1 3231   3.402   0.408   0.378  0.9205  0.1999 -1.4312
 1032SOL    HW2 3232   3.530   0.329   0.366  0.1669 -1.4480  0.6972
 1033SOL     OW 3233   0.799   0.166   2.049  0.4487  0.3286 -0.2944
 1033SOL    HW1 3234   0.787   0.073   2.067 -0.3417  0.2214 -1.3207
 1033SOL    HW2 3235   0.890   0.183   2.071  0.5443 -0.6385  0.1045
 1034SOL     OW 3236   1.990   3.294   0.120  0.0849  0.3970  0.9011
 1034SOL    HW1 3237   2.082   3.303   0.095 -0.5111  0.6564 -1.4632
 1034SOL    HW2 3238   1.983   3.204   0.151  0.9237  0.0375  0.0880
 1035SOL     OW 3239   3.342   2.353   2.454  0.2478 -0.0946 -0.0265
 1035SOL    HW1 3240   3.254   2.385   2.435  0.2509  0.0296  0.1639
 1035SOL    HW2 3241   3.396   2.389   2.384  0.0815 -0.4913 -0.3619
 1036SOL     OW 3242   3.786   1.794   2.582 -0.3551 -0.4045  0.4028
 1036SOL    HW1 3243   3.831   1.757   2.506  1.3139  1.1043  0.5974
 1036SOL    HW2 3244   3.693   1.786   2.560 -0.1236 -3.7240  0.0187
 1037SOL     OW 3245   3.470   3.863   2.178  0.1951  0.3645  0.1429
 1037SOL    HW1 3246   3.446   3.927   2.110  1.0279 -2.1332 -2.7092
 1037SOL    HW2 3247   3.556   3.891   2.208  0.8559  0.2837 -1.5653
 1038SOL     OW 3248   2.138   0.745   1.960  0.1872 -0.4429 -0.1919
 1038SOL    HW1 3249   2.200   0.813   1.936 -0.4388 -0.2435 -1.3259
 1038SOL    HW2 3250   2.150   0.733   2.055 -0.0716  1.6210  0.1405
 1039SOL     OW 3251   2.065   2.093   0.858  0.3584  0.2262  0.3480
 1039SOL    HW1 3252   2.158   2.114   0.843 -0.1858  1.3851 -1.8445
 1039SOL    HW2 3253   2.031   2.169   0.904  0.5145 -0.2980  1.3557
 1040SOL     OW 3254   0.914   2.333   1.275 -0.0510  0.2540 -0.0388
 1040SOL    HW1 3255   0.823   2.335   1.302 -0.2002  0.2372 -0.5247
 1040SOL    HW2 3256   0.911   2.303   1.184  0.5797 -1.7828  0.5580
 1041SOL     OW 3257   2.672   0.318   0.988 -0.3382 -0.4446 -0.4201
 1041SOL    HW1 3258   2.736   0.275   1.043 -0.4560 -0.4871 -0.3165
 1041SOL    HW2 3259   2.589   0.276   1.010 -0.2064 -1.3027 -1.4948
 1042SOL     OW 3260   1.030   0.745   1.808 -0.2650 -0.0305 -0.2634
 1042SOL    HW1 3261   0.996   0.658   1.790  1.5225 -0.7804 -0.2085
 1042SOL    HW2 3262   1.096   0.760   1.741 -0.9749  1.5776 -0.6689
 1043SOL     OW 3263   1.545   3.727   1.457  0.4247  0.7295 -0.7260
 1043SOL    HW1 3264   1.609   3.776   1.509  2.9190 -0.4173 -2.5220
 1043SOL    HW2 3265   1.476   3.706   1.520  1.9520  1.7084  1.4443
 1044SOL     OW 3266   1.205   2.939   0.148 -0.3253 -0.1524  0.2478
 1044SOL    HW1 3267   1.203   3.030   0.178 -0.8887 -0.5788  1.5459
 1044SOL    HW2 3268   1.282   2.934   0.091  0.4036  0.8414  1.1223
 1045SOL     OW 3269   1.344   3.333   2.582 -0.2472  0.3106 -0.0552
 1045SOL    HW1 3270   1.376   3.335   2.672 -0.9037  3.5900  0.2201
 1045SOL    HW2 3271   1.250   3.343   2.589 -0.6734 -2.0974 -1.1266
 1046SOL     OW 3272   0.981   2.915   0.737 -0.0487 -0.6030  0.6201
 1046SOL    HW1 3273   0.912   2.968   0.778 -0.3740 -1.4485  1.1835
 1046SOL    HW2 3274   0.973   2.829   0.778 -0.3140 -1.4661 -1.1425
 1047SOL     OW 3275   3.417   3.347   3.324  0.6204  0.4487 -0.0882
 1047SOL    HW1 3276   3.435   3.276   3.262 -0.5811 -1.0312  1.1696
 1047SOL    HW2 3277   3.493   3.346   3.383  1.3193  1.2419 -0.9420
 1048SOL     OW 3278   3.172   0.791   0.989 -0.5738  0.3280 -0.4462
 1048SOL    HW1 3279   3.193   0.885   0.983 -0.2393  0.2962  0.1678
 1048SOL    HW2 3280   3.078   0.788   1.007 -0.3041  0.5956  1.1023
 1049SOL     OW 3281   3.972   2.792   1.803  0.1326 -0.0737  0.0178
 1049SOL    HW1 3282   4.012   2.800   1.890  0.2510  1.5803 -0.1511
 1049SOL    HW2 3283   3.884   2.757   1.820 -0.2875  1.3445  0.9548
 1050SOL     OW 3284   3.009   3.294   0.302  0.1184  0.4034 -0.4430
 1050SOL    HW1 3285   3.042   3.267   0.216  1.3316 -1.3862  0.5319
 1050SOL    HW2 3286   3.054   3.378   0.318  0.8113  0.1630 -1.0346
 1051SOL     OW 3287   0.608   0.268   0.950  0.2491 -1.0202  0.2221
 1051SOL    HW1 3288   0.519   0.248   0.921 -0.1725 -1.1153  1.5410
 1051SOL    HW2 3289   0.629   0.200   1.014  1.0768 -0.6975  0.3041
 1052SOL     OW 3290   0.044   1.042   0.897  0.4272 -0.5915  0.0322
 1052SOL    HW1 3291   0.024   1.106   0.830 -0.5878  0.3873  1.2135
 1052SOL    HW2 3292   0.138   1.027   0.890  0.7288  1.2311 -0.1130
 1053SOL     OW 3293   0.288   1.732   0.292  0.7218 -0.2720 -0.2216
 1053SOL    HW1 3294   0.209   1.751   0.343  1.6623  0.9500  0.8626
 1053SOL    HW2 3295   0.355   1.713   0.358  1.5073 -0.5663 -1.0896
 1054SOL     OW 3296   0.388   3.835  -0.001 -0.5276  0.7725  0.2713
 1054SOL    HW1 3297   0.457   3.860   0.061  0.1888  2.7474 -1.2359
 1054SOL    HW2 3298   0.307   3.838   0.050  0.2647  0.2843  1.5979
 1055SOL     OW 3299   1.039   3.385   3.195  0.8398 -0.0910 -0.2930
 1055SOL    HW1 3300   0.996   3.437   3.262 -0.1191 -1.2060 -0.0043
 1055SOL    HW2 3301   1.000   3.414   3.112  1.7285  0.9994 -0.3397
 1056SOL     OW 3302   1.158   3.318   0.619 -0.3457  0.1552 -0.1150
 1056SOL    HW1 3303   1.100   3.363   0.679 -0.9845  0.7899 -1.1817
 1056SOL    HW2 3304   1.243   3.360   0.632 -0.8858  1.5681 -0.9556
 1057SOL     OW 3305   2.956   3.206   2.014  0.2004 -0.2188  0.6802
 1057SOL    HW1 3306   2.942   3.132   1.956 -2.2115 -1.0604  2.1836
 1057SOL    HW2 3307   3.014   3.173   2.082  1.2421  0.0971 -0.0412
 1058SOL     OW 3308   1.271   2.929   0.796  0.4924  0.0727  0.1942
 1058SOL    HW1 3309   1.183   2.933   0.759  1.0376  1.6445 -1.0567
 1058SOL    HW2 3310   1.295   2.837   0.792  0.7264  0.1389 -4.1031
 1059SOL     OW 3311   2.640   0.905   2.648  0.1435 -0.4780  0.5413
 1059SOL    HW1 3312   2.706   0.960   2.606  1.7113 -1.0011  2.1731
 1059SOL    HW2 3313   2.648   0.820   2.603 -1.6802  0.2710 -1.3871
 1060SOL     OW 3314   1.175   1.654   1.004  0.0697  0.3218  0.0550
 1060SOL    HW1 3315   1.218   1.738   1.018  0.9240 -0.0219 -0.3983
 1060SOL    HW2 3316   1.137   1.660   0.917 -0.9226  0.6669  0.5022
 1061SOL     OW 3317   0.144   1.095   1.762 -0.2740  0.4160 -0.7399
 1061SOL    HW1 3318   0.082   1.165   1.740  1.5958  2.0039 -1.2562
 1061SOL    HW2 3319   0.089   1.022   1.789 -2.3807  1.5479 -1.7113
 1062SOL     OW 3320   3.629   2.252   0.238  0.1267  0.7928 -0.6900
 1062SOL    HW1 3321   3.606   2.214   0.323  2.9810  0.2921 -0.0222
 1062SOL    HW2 3322   3.560   2.224   0.179 -3.4874  3.3234  1.8789
 1063SOL     OW 3323   0.113   3.557   3.027 -1.1219  0.8070 -0.0936
 1063SOL    HW1 3324   0.082   3.470   3.053  1.3703 -0.9614 -2.5206
 1063SOL    HW2 3325   0.115   3.554   2.931 -0.6467  3.4669 -0.2462
 1064SOL     OW 3326   3.362   3.538   3.154  0.0952 -0.2168  0.1503
 1064SOL    HW1 3327   3.444   3.535   3.105  0.4632  1.7963  0.5648
 1064SOL    HW2 3328   3.384   3.500   3.240  0.4249 -0.2617  0.0459
 1065SOL     OW 3329   2.000   2.539   1.060 -0.3711  0.4255  0.0990
 1065SOL    HW1 3330   1.987   2.453   1.020  0.4671 -0.0892  0.8840
 1065SOL    HW2 3331   2.001   2.522   1.154  0.3748  1.2016  0.2519
 1066SOL     OW 3332   3.337   0.871   3.698 -0.2281  0.5129 -0.2783
 1066SOL    HW1 3333   3.358   0.781   3.677 -3.3958 -1.1800  2.6967
 1066SOL    HW2 3334   3.269   0.895   3.635 -1.4999 -0.3449  0.7195
 1067SOL     OW 3335   2.730   2.899   1.689  0.5785 -0.1388 -0.5252
 1067SOL    HW1 3336   2.692   2.979   1.727  1.3991 -0.4224  0.9607
 1067SOL    HW2 3337   2.777   2.930   1.612 -0.0632  0.6564 -0.6157
 1068SOL     OW 3338   0.714   0.121   3.512  0.0103  0.2657 -0.2672
 1068SOL    HW1 3339   0.669   0.099   3.431 -0.5873 -3.3806  0.8673
 1068SOL    HW2 3340   0.646   0.161   3.567 -0.4665 -0.2612 -0.4616
 1069SOL     OW 3341   2.181   2.732   2.587  0.2152 -0.5506 -0.2543
 1069SOL    HW1 3342   2.123   2.806   2.567 -0.0222 -0.6326  0.1252
 1069SOL    HW2 3343   2.225   2.713   2.504  0.7282  0.4081 -0.2138
 1070SOL     OW 3344   3.602   1.348   2.034 -0.2570 -0.2303  0.0471
 1070SOL    HW1 3345   3.593   1.318   1.943  0.2507  0.7741 -0.3458
 1070SOL    HW2 3346   3.609   1.443   2.027  2.7865 -0.2950  0.8809
 1071SOL     OW 3347   3.193   0.830   2.087  0.3835 -0.2860  0.5561
 1071SOL    HW1 3348   3.178   0.910   2.037 -1.2070 -1.0628 -0.2972
 1071SOL    HW2 3349   3.126   0.832   2.155  0.1921 -0.9811  0.3944
 1072SOL     OW 3350   1.040   0.235   0.085  0.2723 -0.3617  0.4036
 1072SOL    HW1 3351   1.079   0.183   0.015 -0.7230 -0.3596 -0.1855
 1072SOL    HW2 3352   1.046   0.325   0.054 -0.2405 -0.3677  0.2639
 1073SOL     OW 3353   3.911   1.127   2.198 -0.5166 -0.1215  0.0054
 1073SOL    HW1 3354   4.004   1.127   2.220 -0.1828 -0.6716 -1.3397
 1073SOL    HW2 3355   3.877   1.047   2.238 -0.1833 -0.4613 -0.3793
 1074SOL     OW 3356   2.345   1.512   3.751  0.1133  0.3603  0.2206
 1074SOL    HW1 3357   2.363   1.576   3.820 -1.6589  2.5915 -1.2522
 1074SOL    HW2 3358   2.278   1.455   3.788 -0.8542  1.5642  0.3788
 1075SOL     OW 3359   1.458   2.314   2.828  0.2797 -0.0900  0.6157
 1075SOL    HW1 3360   1.513   2.249   2.872  0.3515 -0.5037 -0.0781
 1075SOL    HW2 3361   1.376   2.269   2.812  0.4411 -0.1110 -0.1529
 1076SOL     OW 3362   0.450   2.833   3.768  0.1023 -0.0439 -0.4024
 1076SOL    HW1 3363   0.483   2.887   3.696 -1.4169  0.8140 -0.5057
 1076SOL    HW2 3364   0.513   2.847   3.838  0.3643  0.9761 -0.8113
 1077SOL     OW 3365   2.021   2.140   1.667  0.2642  0.7290 -0.5406
 1077SOL    HW1 3366   2.045   2.226   1.700  1.1557  0.3744 -0.2144
 1077SOL    HW2 3367   2.028   2.148   1.571 -2.1988  1.7203 -0.7215
 1078SOL     OW 3368   0.047   3.803   0.701 -0.2245 -0.5254 -0.0116
 1078SOL    HW1 3369   0.128   3.776   0.743  0.0480  0.4672  0.1448
 1078SOL    HW2 3370   0.038   3.896   0.725  0.3293  0.3016 -2.6901
 1079SOL     OW 3371   0.614   1.694   1.911  0.2342 -0.0987 -0.3986
 1079SOL    HW1 3372   0.629   1.625   1.846  0.4365  1.0492 -1.6189
 1079SOL    HW2 3373   0.695   1.698   1.961  1.0028  0.6188 -1.6635
 1080SOL     OW 3374   3.525   1.321   1.772 -0.8622  0.6841  0.1953
 1080SOL    HW1 3375   3.590   1.375   1.728  0.5208 -2.2818 -1.7717
 1080SOL    HW2 3376   3.443   1.338   1.726 -0.3520  0.7748 -0.6983
 1081SOL     OW 3377   0.124   0.526   1.407  0.0853  0.1438 -0.6205
 1081SOL    HW1 3378   0.149   0.453   1.350  0.4882 -1.3479  1.3897
 1081SOL    HW2 3379   0.194   0.590   1.395  2.8352 -2.1630  1.6529
 1082SOL     OW 3380   1.676   2.340   3.529 -0.1026 -0.0392  0.3660
 1082SOL    HW1 3381   1.596   2.292   3.509 -0.0802 -0.6873  1.6872
 1082SOL    HW2 3382   1.747   2.280   3.503 -0.0660 -0.1678  0.7540
 1083SOL     OW 3383   0.052   3.728   3.679 -0.3945  0.1575  0.1734
 1083SOL    HW1 3384  -0.029   3.692   3.714  0.6773 -2.0998  0.5088
 1083SOL    HW2 3385   0.121   3.673   3.715  1.1750  0.9849 -1.3761
 1084SOL     OW 3386   3.388   1.153   2.107 -0.0242 -0.7254  0.2176
 1084SOL    HW1 3387   3.444   1.225   2.136  0.7397 -0.7252 -1.1928
 1084SOL    HW2 3388   3.450   1.089   2.070 -0.6304 -2.2917  1.7502
 1085SOL     OW 3389   1.722   3.233   0.396  0.6825 -0.6729  0.4873
 1085SOL    HW1 3390   1.638   3.263   0.433  0.8955  0.2440  0.2583
 1085SOL    HW2 3391   1.759   3.311   0.356  1.0066 -1.3836 -0.6474
 1086SOL     OW 3392   1.725   2.158   0.189 -0.5078  0.0772 -0.0316
 1086SOL    HW1 3393   1.756   2.247   0.208  0.5840 -0.3441  0.2469
 1086SOL    HW2 3394   1.799   2.115   0.147 -0.3078 -1.2833  1.5877
 1087SOL     OW 3395   3.737   1.271   0.440  0.8699 -1.1679  0.2265
 1087SOL    HW1 3396   3.723   1.357   0.401  0.7677 -1.3167 -0.0672
 1087SOL    HW2 3397   3.828   1.251   0.423  0.7882 -1.2943 -0.0580
 1088SOL     OW 3398   0.975   2.743   0.182  0.2171  0.2695  0.1359
 1088SOL    HW1 3399   0.979   2.709   0.272  0.2228 -1.2437 -0.3955
 1088SOL    HW2 3400   1.054   2.796   0.173 -0.3678  1.4083  1.3692
 1089SOL     OW 3401   0.259   2.156   1.685  0.3510 -0.1862 -0.1090
 1089SOL    HW1 3402   0.278   2.228   1.625  1.5489  0.4349  0.9610
 1089SOL    HW2 3403   0.300   2.183   1.768 -0.6799 -1.3108  0.8050
 1090SOL     OW 3404   0.476   3.252   3.885 -0.4815  0.8000  0.0011
 1090SOL    HW1 3405   0.546   3.228   3.824  0.1896  0.7903  0.7648
 1090SOL    HW2 3406   0.484   3.347   3.894  0.0265  0.6960  0.7796
 1091SOL     OW 3407   2.381   0.391   2.622  0.0413  0.1729  0.0835
 1091SOL    HW1 3408   2.465   0.349   2.641  0.0671 -0.7722 -1.9313
 1091SOL    HW2 3409   2.315   0.332   2.658  0.1014 -1.3963 -2.2252
 1092SOL     OW 3410   2.200   1.030   3.546 -0.4417 -0.0283 -0.0767
 1092SOL    HW1 3411   2.199   0.968   3.472 -0.3095  0.5002 -0.5253
 1092SOL    HW2 3412   2.292   1.033   3.573 -0.4132  0.1314 -0.1906
 1093SOL     OW 3413   3.423   1.176   0.441 -0.1241  0.0305  0.1967
 1093SOL    HW1 3414   3.509   1.216   0.452 -1.3755  2.4440  2.4292
 1093SOL    HW2 3415   3.423   1.101   0.500  0.3524  0.1936  0.4039
 1094SOL     OW 3416   3.326   3.605   0.775 -0.1769 -0.1231  0.1210
 1094SOL    HW1 3417   3.271   3.548   0.722  0.4798  0.3571 -1.1334
 1094SOL    HW2 3418   3.379   3.545   0.828 -2.8228 -0.5790  2.4263
 1095SOL     OW 3419   2.358   1.886   0.290  0.0605 -0.3054  0.2482
 1095SOL    HW1 3420   2.288   1.916   0.347  0.0276 -0.6044  0.3704
 1095SOL    HW2 3421   2.380   1.962   0.236 -0.4510 -0.2481  0.1146
 1096SOL     OW 3422   1.453   1.616   2.411 -0.0863  0.2847  0.3371
 1096SOL    HW1 3423   1.543   1.602   2.440 -0.3174  0.7351  1.3253
 1096SOL    HW2 3424   1.445   1.565   2.331  0.9689  0.0288  0.3816
 1097SOL     OW 3425   2.460   1.465   1.052  0.2517  0.1467 -0.0465
 1097SOL    HW1 3426   2.540   1.439   1.005 -0.4825 -0.6496 -0.9032
 1097SOL    HW2 3427   2.475   1.556   1.077  1.0779  0.2832 -0.9677
 1098SOL     OW 3428   1.028   1.475   2.844  0.3514  0.7491 -0.2649
 1098SOL    HW1 3429   1.080   1.415   2.897  1.1264 -0.1026 -1.9322
 1098SOL    HW2 3430   0.939   1.465   2.876  0.3464 -1.8104 -0.9244
 1099SOL     OW 3431   1.438   0.067   1.738 -0.4470  0.6332  0.5733
 1099SOL    HW1 3432   1.384   0.005   1.788  0.1758 -0.9664 -0.6703
 1099SOL    HW2 3433   1.390   0.081   1.657  0.9106 -0.7193 -0.5016
 1100SOL     OW 3434   3.837   1.332   3.498  0.1389  0.1442 -0.3249
 1100SOL    HW1 3435   3.920   1.342   3.544 -0.0801 -0.9877  0.3528
 1100SOL    HW2 3436   3.852   1.260   3.436 -0.3058 -0.0053 -0.2651
 1101SOL     OW 3437   0.935   2.347   0.711  0.1957  0.3513 -0.1474
 1101SOL    HW1 3438   0.889   2.367   0.629  0.8550 -0.0387 -0.6223
 1101SOL    HW2 3439   0.874   2.373   0.780 -1.2605 -1.2506 -0.7532
 1102SOL     OW 3440   2.863   1.373   3.157 -0.7875 -0.1351  0.0181
 1102SOL    HW1 3441   2.872   1.312   3.230  1.2147 -2.2907 -1.8984
 1102SOL    HW2 3442   2.821   1.450   3.196 -0.7675 -1.5674  3.1780
 1103SOL     OW 3443   3.595   3.437   2.561  0.1795 -0.2372  0.0305
 1103SOL    HW1 3444   3.553   3.512   2.519  1.8546  0.5463 -0.3561
 1103SOL    HW2 3445   3.526   3.372   2.570 -1.0432  0.9092 -0.7171
 1104SOL     OW 3446   1.132   2.171   0.597  0.3565 -0.1223 -0.0877
 1104SOL    HW1 3447   1.046   2.196   0.632 -0.3329  0.1494 -1.8465
 1104SOL    HW2 3448   1.177   2.129   0.670 -0.7348  0.9811  1.2707
 1105SOL     OW 3449   3.602   2.927   3.305 -0.2992  0.6113 -0.3213
 1105SOL    HW1 3450   3.601   2.843   3.258  0.9231  0.5111 -0.1855
 1105SOL    HW2 3451   3.581   2.903   3.396 -3.5315  0.9006 -0.8567
 1106SOL     OW 3452   1.063   1.875   2.081 -0.3404 -0.3198 -0.0541
 1106SOL    HW1 3453   0.994   1.887   2.147  0.3072 -1.2684  0.8154
 1106SOL    HW2 3454   1.144   1.876   2.131  0.1659 -0.9668 -0.8474
 1107SOL     OW 3455   3.419   1.911   0.720 -0.5469 -0.3044 -0.0967
 1107SOL    HW1 3456   3.494   1.857   0.746 -1.8740 -1.9552  0.4857
 1107SOL    HW2 3457   3.432   1.925   0.626  2.7678  3.2684  0.6375
 1108SOL     OW 3458   1.121   0.897   1.535  0.3187 -0.4900  0.1434
 1108SOL    HW1 3459   1.076   0.971   1.494  1.1674 -0.8011 -1.4534
 1108SOL    HW2 3460   1.205   0.933   1.564  0.9230 -0.8650 -1.0364
 1109SOL     OW 3461   2.027   3.875   0.814  0.1627  0.0349  0.2535
 1109SOL    HW1 3462   2.065   3.907   0.895 -0.1779  1.0129  0.0374
 1109SOL    HW2 3463   1.933   3.885   0.825 -0.0183 -1.5181  0.4255
 1110SOL     OW 3464   1.593   0.038   1.090  0.0862  0.2659 -0.3880
 1110SOL    HW1 3465   1.527   0.022   1.158 -0.1918  0.4153 -0.6172
 1110SOL    HW2 3466   1.563  -0.013   1.015 -0.9777  2.0250 -1.2232
 1111SOL     OW 3467   2.250   2.471   2.023  0.3452 -0.3221 -0.1619
 1111SOL    HW1 3468   2.163   2.441   2.049  0.5317 -2.7477 -2.0220
 1111SOL    HW2 3469   2.309   2.430   2.087  0.3085 -0.7488 -0.4009
 1112SOL     OW 3470   2.012   0.747   3.054 -0.8017 -0.1509  0.0525
 1112SOL    HW1 3471   2.019   0.653   3.071 -1.0738 -0.1951 -0.0754
 1112SOL    HW2 3472   1.964   0.782   3.129  2.0574  0.4209  1.7999
 1113SOL     OW 3473   3.095   2.610   1.254 -0.3596 -0.0548  0.1011
 1113SOL    HW1 3474   3.084   2.612   1.349 -2.9183  2.9909 -0.0967
 1113SOL    HW2 3475   3.170   2.667   1.238 -0.1581 -0.2708  0.2700
 1114SOL     OW 3476   1.175   3.754   3.386 -0.2621  0.2619  0.1253
 1114SOL    HW1 3477   1.219   3.794   3.461  0.8757  3.4672 -2.0434
 1114SOL    HW2 3478   1.246   3.736   3.323 -1.2899 -1.3992 -0.6324
 1115SOL     OW 3479   1.322   2.767   2.985 -0.3155  1.0764 -0.4490
 1115SOL    HW1 3480   1.240   2.777   3.032  0.4685 -1.2133  1.6205
 1115SOL    HW2 3481   1.387   2.811   3.039 -0.0194  2.2464 -1.7024
 1116SOL     OW 3482   0.863   2.245   2.523  0.1215 -0.2947  0.3428
 1116SOL    HW1 3483   0.785   2.253   2.470  0.8614 -0.1579 -0.7604
 1116SOL    HW2 3484   0.868   2.152   2.547 -0.4293 -0.2781  0.5194
 1117SOL     OW 3485   2.442   2.047   3.247 -0.3082 -0.1506 -0.3256
 1117SOL    HW1 3486   2.502   2.119   3.269 -1.3535  1.0058 -1.1551
 1117SOL    HW2 3487   2.494   1.987   3.194  0.0786  0.9624 -1.2422
 1118SOL     OW 3488   3.535   1.047   1.891 -0.0505 -0.7050 -0.6070
 1118SOL    HW1 3489   3.537   1.140   1.914  0.1463 -0.7765 -0.3358
 1118SOL    HW2 3490   3.497   1.046   1.803  0.1674 -0.3455 -0.7120
 1119SOL     OW 3491   2.724   0.194   0.238 -0.5496 -0.2542  0.5018
 1119SOL    HW1 3492   2.706   0.279   0.278  0.4651  0.3671 -0.3061
 1119SOL    HW2 3493   2.809   0.168   0.273 -1.2358 -1.3707  1.4111
 1120SOL     OW 3494   0.191   2.358   3.090  0.1659 -0.2048 -0.3295
 1120SOL    HW1 3495   0.238   2.303   3.153  1.9523  0.2127 -1.2253
 1120SOL    HW2 3496   0.143   2.420   3.145  1.5975  0.0958  0.6706
 1121SOL     OW 3497   3.162   1.661   3.585 -0.3101 -0.4396 -0.2600
 1121SOL    HW1 3498   3.125   1.594   3.527  0.3798 -0.4187 -0.7286
 1121SOL    HW2 3499   3.103   1.736   3.576 -0.9580 -0.8962  0.0941
 1122SOL     OW 3500   0.996   1.160   0.363  0.8686 -0.7678 -0.5725
 1122SOL    HW1 3501   0.935   1.225   0.397 -0.3314 -1.8179 -0.6163
 1122SOL    HW2 3502   1.081   1.204   0.362 -0.0728  1.1675 -1.6379
 1123SOL     OW 3503   3.353  -0.003   1.557 -0.7377  0.4499 -0.1108
 1123SOL    HW1 3504   3.362   0.058   1.484  1.9166  1.2062  0.6992
 1123SOL    HW2 3505   3.309   0.048   1.625 -1.0270  0.5535 -0.3764
 1124SOL     OW 3506   0.944   2.672   3.555 -0.1517  0.1980 -0.8190
 1124SOL    HW1 3507   0.960   2.628   3.471 -0.0503  1.0090 -1.2351
 1124SOL    HW2 3508   1.031   2.686   3.591 -0.1175  1.0822 -1.2306
 1125SOL     OW 3509   1.545   3.239   3.852 -0.7131 -0.3960 -0.3419
 1125SOL    HW1 3510   1.634   3.264   3.827 -1.2867  3.0564  0.4919
 1125SOL    HW2 3511   1.497   3.235   3.769 -0.3529  0.5591 -0.6148
 1126SOL     OW 3512   1.870   2.693   2.742 -0.1937  0.5875  0.0807
 1126SOL    HW1 3513   1.914   2.777   2.754  0.8197 -0.2010  2.4472
 1126SOL    HW2 3514   1.922   2.649   2.674 -1.0873  2.0212 -1.6158
 1127SOL     OW 3515   3.209   2.690   3.380 -0.0267  0.4668 -0.1852
 1127SOL    HW1 3516   3.229   2.743   3.457 -1.4178  2.5698 -1.1955
 1127SOL    HW2 3517   3.233   2.745   3.306 -1.1475 -0.4630 -1.2788
 1128SOL     OW 3518   0.553   0.648   2.303  0.1502 -0.4179  0.1308
 1128SOL    HW1 3519   0.495   0.720   2.281  1.5310  0.5927 -0.3525
 1128SOL    HW2 3520   0.582   0.614   2.218  0.1727 -0.9965  0.3646
 1129SOL     OW 3521   0.617   3.482   1.555  0.4795 -0.8233  0.3466
 1129SOL    HW1 3522   0.606   3.481   1.460 -0.0635  0.4296  0.3773
 1129SOL    HW2 3523   0.591   3.395   1.583  1.4897 -1.4988 -0.7321
 1130SOL     OW 3524   0.457   0.381   2.358 -0.0263 -0.3904  0.4669
 1130SOL    HW1 3525   0.504   0.464   2.363  2.5581 -1.6947 -0.6835
 1130SOL    HW2 3526   0.439   0.369   2.265 -1.8733 -0.3984  0.7809
 1131SOL     OW 3527  -0.001   0.835   3.042  0.4940 -0.3779  0.2737
 1131SOL    HW1 3528   0.079   0.803   3.081  0.0082  0.4003  2.0243
 1131SOL    HW2 3529   0.025   0.913   2.993  0.9580 -0.7553 -0.0805
 1132SOL     OW 3530   3.392   1.189   3.254 -0.1747  0.2743 -0.3354
 1132SOL    HW1 3531   3.315   1.162   3.304 -0.1398  0.8636  0.0442
 1132SOL    HW2 3532   3.361   1.260   3.199  0.5603  2.0345  1.4036
 1133SOL     OW 3533   1.905   3.145   1.815 -0.1918 -0.2560 -0.5407
 1133SOL    HW1 3534   1.873   3.174   1.730  1.6237  2.2022 -0.4888
 1133SOL    HW2 3535   1.831   3.159   1.875 -0.1708  2.1562 -0.9828
 1134SOL     OW 3536   0.132   0.091   3.113  0.3034  0.0982  0.1407
 1134SOL    HW1 3537   0.214   0.042   3.119  1.4452  2.0525  1.6668
 1134SOL    HW2 3538   0.125   0.137   3.196 -1.4537  1.3620 -0.6336
 1135SOL     OW 3539   2.414   1.786   0.764  0.1043 -0.1291 -0.4607
 1135SOL    HW1 3540   2.497   1.740   0.748  0.0611  0.0809 -1.3287
 1135SOL    HW2 3541   2.439   1.878   0.772  0.0966 -0.2016  0.5133
 1136SOL     OW 3542   2.661   3.668   1.985 -1.0113  0.5561 -0.9433
 1136SOL    HW1 3543   2.640   3.712   2.068  0.3600  1.3734 -1.0026
 1136SOL    HW2 3544   2.681   3.578   2.011 -0.6900  0.7811 -0.3892
 1137SOL     OW 3545   3.678   3.386   2.159 -0.3292 -0.2025  0.0182
 1137SOL    HW1 3546   3.620   3.460   2.175 -0.0637  1.0231 -3.6906
 1137SOL    HW2 3547   3.619   3.312   2.143 -0.5955 -0.9729  3.6987
 1138SOL     OW 3548   3.125   3.233   3.657 -0.0331  0.1686  0.2258
 1138SOL    HW1 3549   3.093   3.186   3.734  0.9289  2.5040  2.1890
 1138SOL    HW2 3550   3.054   3.225   3.593 -1.1183 -1.3797  1.5323
 1139SOL     OW 3551   0.462   3.786   1.309  0.8190 -0.1432  0.6452
 1139SOL    HW1 3552   0.493   3.858   1.365 -0.0536  0.8904 -0.1512
 1139SOL    HW2 3553   0.379   3.760   1.348 -0.4811  1.5001 -0.8538
 1140SOL     OW 3554   3.635   2.537   2.703  0.3867  0.3148  0.2196
 1140SOL    HW1 3555   3.598   2.509   2.619  0.8659  0.2318  0.0323
 1140SOL    HW2 3556   3.726   2.508   2.700  0.3008 -0.0784  0.9488
 1141SOL     OW 3557   1.101   2.106   1.085 -0.1976 -0.2518  0.1016
 1141SOL    HW1 3558   1.021   2.057   1.065 -0.3350 -0.5057  1.2175
 1141SOL    HW2 3559   1.093   2.187   1.035 -2.3162  0.8228  2.0196
 1142SOL     OW 3560   2.791   3.867   2.616 -0.2093  0.0207  0.0996
 1142SOL    HW1 3561   2.748   3.934   2.563 -0.2827  0.0715  0.2245
 1142SOL    HW2 3562   2.734   3.855   2.692 -0.4318 -0.5134 -0.1491
 1143SOL     OW 3563   0.843   2.176   3.205 -0.3922  0.0868 -0.3122
 1143SOL    HW1 3564   0.828   2.264   3.241  0.4413 -0.2558  0.8958
 1143SOL    HW2 3565   0.810   2.116   3.272 -1.2311 -0.5488 -1.2568
 1144SOL     OW 3566   2.395   1.898   2.100  0.0229 -0.2370  0.3391
 1144SOL    HW1 3567   2.340   1.958   2.049 -0.1159 -1.8934 -1.5633
 1144SOL    HW2 3568   2.334   1.853   2.159  0.2080  1.8034  2.2314
 1145SOL     OW 3569   2.892   0.542   0.408  0.1015 -0.1874 -0.0658
 1145SOL    HW1 3570   2.960   0.487   0.445 -0.1159  0.3645  1.1987
 1145SOL    HW2 3571   2.924   0.632   0.420 -0.7062  0.0624  0.2831
 1146SOL     OW 3572   0.165   2.712   1.244  0.5993 -0.0771 -0.0684
 1146SOL    HW1 3573   0.155   2.717   1.339 -1.1516 -0.3379 -0.2030
 1146SOL    HW2 3574   0.126   2.628   1.220  1.7086 -0.3697 -0.9689
 1147SOL     OW 3575   2.259   1.283   0.065 -0.3098 -0.3344  0.1562
 1147SOL    HW1 3576   2.266   1.298  -0.030  0.6611  0.9647  0.4037
 1147SOL    HW2 3577   2.239   1.369   0.102  2.6853 -0.0427  1.3997
 1148SOL     OW 3578   0.563   1.035   3.212  0.4622 -0.5656  0.5702
 1148SOL    HW1 3579   0.631   1.022   3.146  0.4751  0.3415  0.3869
 1148SOL    HW2 3580   0.517   0.951   3.217  0.8081 -0.8040 -0.1965
 1149SOL     OW 3581   1.501   0.722   1.681 -0.1531 -0.0322 -0.5472
 1149SOL    HW1 3582   1.466   0.809   1.666 -0.4246  0.3033  1.6349
 1149SOL    HW2 3583   1.550   0.730   1.764  0.6846 -1.7052 -0.8321
 1150SOL     OW 3584   1.092   0.504   3.919  0.0353 -0.2931 -0.0190
 1150SOL    HW1 3585   1.007   0.479   3.884 -0.1585  1.0967 -0.5917
 1150SOL    HW2 3586   1.133   0.555   3.849 -0.5586  2.9690  1.8019
 1151SOL     OW 3587   3.628   3.028   0.237 -0.4783  0.0801 -0.6444
 1151SOL    HW1 3588   3.616   3.115   0.274 -1.4204 -0.3414  0.0623
 1151SOL    HW2 3589   3.636   3.043   0.143  0.6157  1.0345 -0.4337
 1152SOL     OW 3590   3.832   2.459   1.007 -0.6366  0.6850 -0.1056
 1152SOL    HW1 3591   3.773   2.422   0.942  0.9179 -0.5320 -0.9008
 1152SOL    HW2 3592   3.845   2.549   0.979  0.4667  0.0279 -1.8967
 1153SOL     OW 3593   0.688   3.524   0.600 -0.2617 -0.6275 -0.2453
 1153SOL    HW1 3594   0.633   3.543   0.524 -0.7704 -0.7736  0.0798
 1153SOL    HW2 3595   0.739   3.603   0.614  1.2636 -1.2556 -1.9117
 1154SOL     OW 3596   0.094   2.476   2.354  0.7345  0.0356 -0.8890
 1154SOL    HW1 3597   0.061   2.387   2.369  1.0655  0.0880  0.3113
 1154SOL    HW2 3598   0.175   2.464   2.305  0.2381 -0.2537 -1.6467
 1155SOL     OW 3599   2.981   0.268   0.707  0.7210 -0.4264  0.5785
 1155SOL    HW1 3600   2.936   0.215   0.773 -1.0677 -0.4176 -0.5483
 1155SOL    HW2 3601   3.023   0.338   0.756 -0.7233 -0.2993  1.7005
 1156SOL     OW 3602   2.369   2.771   3.556  0.1553  0.5485 -0.0366
 1156SOL    HW1 3603   2.385   2.761   3.649 -2.0373  0.4951  0.3832
 1156SOL    HW2 3604   2.385   2.683   3.519 -2.6778 -0.5182  0.9680
 1157SOL     OW 3605   2.070   2.986   0.977 -0.1411  0.3675  0.0586
 1157SOL    HW1 3606   1.981   3.005   0.945  0.1405  1.4695 -0.0954
 1157SOL    HW2 3607   2.113   3.071   0.981  1.8703 -0.3706 -2.6855
 1158SOL     OW 3608   1.627   0.051   3.541 -0.3723  0.2745  0.4094
 1158SOL    HW1 3609   1.630  -0.024   3.482  2.0437  0.4986  0.1407
 1158SOL    HW2 3610   1.602   0.124   3.486  0.7443  0.2693 -0.1316
 1159SOL     OW 3611   0.585   1.330   3.292  0.0729 -0.1836 -0.1961
 1159SOL    HW1 3612   0.527   1.258   3.268  1.7342 -2.3199  1.6724
 1159SOL    HW2 3613   0.654   1.329   3.226 -0.6958  0.8207 -1.0678
 1160SOL     OW 3614   1.654   2.263   0.683 -0.0447 -0.6434  0.3978
 1160SOL    HW1 3615   1.630   2.285   0.593 -2.1059 -1.7016  0.6407
 1160SOL    HW2 3616   1.643   2.168   0.687  0.3273 -0.6425  1.6914
 1161SOL     OW 3617   3.279   1.752   1.909 -0.0676  0.8309  0.6145
 1161SOL    HW1 3618   3.328   1.834   1.915 -1.1245  1.4728  0.7449
 1161SOL    HW2 3619   3.189   1.776   1.928 -0.2917 -0.4947  1.3624
 1162SOL     OW 3620   2.957   1.810   3.535  0.2400  0.5396  0.1075
 1162SOL    HW1 3621   2.972   1.899   3.569 -1.7462  0.7939  0.4157
 1162SOL    HW2 3622   2.965   1.819   3.440  0.2248  1.0058  0.1463
 1163SOL     OW 3623   1.817   1.445   0.113 -0.1924  0.7696  0.4844
 1163SOL    HW1 3624   1.772   1.489   0.185  1.8613  1.4276  1.4256
 1163SOL    HW2 3625   1.908   1.474   0.119 -0.0458  1.4023 -2.8277
 1164SOL     OW 3626   2.806   1.938   1.473 -0.2761  0.3960 -0.3570
 1164SOL    HW1 3627   2.808   1.846   1.499  1.2242 -0.0773 -1.9254
 1164SOL    HW2 3628   2.717   1.954   1.444 -0.1601 -1.0632 -1.6249
 1165SOL     OW 3629   1.779   0.777   3.283  0.5676 -0.3129  0.0764
 1165SOL    HW1 3630   1.862   0.791   3.328  1.0690  1.1721 -1.2251
 1165SOL    HW2 3631   1.725   0.852   3.309  0.3258 -0.2492 -0.5889
 1166SOL     OW 3632   3.963   3.079   0.952  0.2673  0.0868 -0.1154
 1166SOL    HW1 3633   3.984   2.992   0.985  1.7060  0.1137 -0.8769
 1166SOL    HW2 3634   3.869   3.089   0.966  0.1518 -1.4496  0.2929
 1167SOL     OW 3635   2.747   3.008   3.654  0.8349 -0.7198  0.0718
 1167SOL    HW1 3636   2.669   3.043   3.613 -0.0888  0.5098  2.6563
 1167SOL    HW2 3637   2.818   3.065   3.625  0.2653 -0.0721 -0.0509
 1168SOL     OW 3638   1.322   0.709   3.139 -0.5802  0.0442 -0.2975
 1168SOL    HW1 3639   1.267   0.666   3.204  0.7859 -0.0825  0.8358
 1168SOL    HW2 3640   1.311   0.803   3.156 -2.6977  0.1585 -2.0351
 1169SOL     OW 3641   2.297   1.642   2.769 -0.1386 -0.3405 -0.1275
 1169SOL    HW1 3642   2.282   1.687   2.686  0.6282 -0.9858 -0.6419
 1169SOL    HW2 3643   2.272   1.705   2.836 -3.2153 -0.6684 -0.8334
 1170SOL     OW 3644   2.577   0.144   0.756  0.8278 -0.9241  0.1518
 1170SOL    HW1 3645   2.508   0.207   0.779  0.7423 -0.8895 -0.1853
 1170SOL    HW2 3646   2.632   0.138   0.834 -0.3958 -2.0782  0.9696
 1171SOL     OW 3647   0.421   1.074   2.681 -0.2053  0.2653 -0.2643
 1171SOL    HW1 3648   0.448   0.982   2.676 -0.1750  0.2868 -0.5155
 1171SOL    HW2 3649   0.501   1.123   2.665 -0.6120  0.3271 -2.3709
 1172SOL     OW 3650   2.328   0.821   3.367 -0.4200 -0.2891  0.2924
 1172SOL    HW1 3651   2.389   0.774   3.424 -0.3671 -1.2809 -0.5325
 1172SOL    HW2 3652   2.367   0.812   3.279 -0.5889  1.0368  0.0702
 1173SOL     OW 3653   2.273   2.339   2.740 -0.3376 -0.0551  0.6969
 1173SOL    HW1 3654   2.233   2.426   2.753 -0.7360 -0.1809  0.3374
 1173SOL    HW2 3655   2.202   2.278   2.757 -0.1163 -0.3062  0.7164
 1174SOL     OW 3656   2.516   0.444   2.902 -0.1061  0.2915 -0.1068
 1174SOL    HW1 3657   2.534   0.386   2.828  0.0175 -0.5857  0.6021
 1174SOL    HW2 3658   2.425   0.423   2.927  0.7433 -1.5275  1.7976
 1175SOL     OW 3659   1.382   2.221   3.866  0.5404 -0.0951 -0.0771
 1175SOL    HW1 3660   1.368   2.274   3.944  0.1143  0.1079 -0.2841
 1175SOL    HW2 3661   1.466   2.250   3.832  0.2198  0.6039 -0.3006
 1176SOL     OW 3662   2.767   2.338   0.488  0.0149 -0.3633 -0.4431
 1176SOL    HW1 3663   2.818   2.320   0.567 -1.0968 -1.2055  0.0966
 1176SOL    HW2 3664   2.747   2.252   0.452 -0.8117 -0.0361 -0.7869
 1177SOL     OW 3665   0.508   0.037   2.303 -0.2163  0.1671 -0.0612
 1177SOL    HW1 3666   0.461   0.046   2.220  1.0023  0.9535 -0.6818
 1177SOL    HW2 3667   0.600   0.035   2.279  0.1139 -1.4156  1.1350
 1178SOL     OW 3668   1.610   2.867   0.253  0.0548  0.2373  0.1564
 1178SOL    HW1 3669   1.624   2.873   0.348 -2.9301  0.1677  0.7061
 1178SOL    HW2 3670   1.624   2.955   0.220 -2.2834  1.1186  1.3068
 1179SOL     OW 3671   2.927   2.779   3.343 -0.4663 -0.2919 -0.4496
 1179SOL    HW1 3672   2.890   2.779   3.431 -1.2323 -1.5374 -0.7584
 1179SOL    HW2 3673   3.020   2.760   3.357 -0.2628  0.9991  0.1762
 1180SOL     OW 3674   3.608   1.412   3.607 -0.0234  0.0871  0.0222
 1180SOL    HW1 3675   3.699   1.408   3.579  0.1315  0.2181  0.4913
 1180SOL    HW2 3676   3.568   1.333   3.570  0.6268 -0.7199  0.9833
 1181SOL     OW 3677   0.155   0.577   2.109  0.1419 -0.0878 -0.0798
 1181SOL    HW1 3678   0.110   0.494   2.092 -3.5966  1.9092 -1.0241
 1181SOL    HW2 3679   0.097   0.624   2.169  3.2925  1.0381  2.3681
 1182SOL     OW 3680   2.902   2.130   2.644 -0.8795  0.2172  0.2410
 1182SOL    HW1 3681   2.912   2.140   2.739 -0.9588 -2.8427  0.6728
 1182SOL    HW2 3682   2.863   2.044   2.633 -1.6230  0.8040 -2.5924
 1183SOL     OW 3683   0.533   3.636   3.524  0.1900 -0.2063 -0.3201
 1183SOL    HW1 3684   0.546   3.559   3.468  1.6621  0.9318 -1.6294
 1183SOL    HW2 3685   0.621   3.665   3.546 -0.3281 -0.6069  2.7111
 1184SOL     OW 3686   3.343   3.869   3.322  0.7039  0.1697 -0.2201
 1184SOL    HW1 3687   3.281   3.802   3.349  1.0043 -0.3742 -0.8591
 1184SOL    HW2 3688   3.363   3.917   3.402 -0.2241  0.0894  0.0664
 1185SOL     OW 3689   1.961   0.344   0.620  0.0941 -0.3318  1.3068
 1185SOL    HW1 3690   1.879   0.297   0.604  0.3361 -0.4038  0.1539
 1185SOL    HW2 3691   2.029   0.284   0.590  0.3748  1.0411 -1.1017
 1186SOL     OW 3692   1.697   0.102   3.176 -0.3201  0.8013 -0.1102
 1186SOL    HW1 3693   1.605   0.101   3.149 -0.6365  0.3040  0.9627
 1186SOL    HW2 3694   1.716   0.012   3.201 -0.2081  1.3285  1.8410
 1187SOL     OW 3695   3.475   2.008   1.593  0.0855 -0.8515 -0.4949
 1187SOL    HW1 3696   3.490   1.987   1.686  0.4272 -1.6672 -0.7243
 1187SOL    HW2 3697   3.549   1.968   1.548 -1.1824 -2.3290 -1.3422
 1188SOL     OW 3698   2.343   1.777   1.042  0.0819  0.4013 -0.1007
 1188SOL    HW1 3699   2.407   1.834   0.999  0.2021 -0.4059 -1.0207
 1188SOL    HW2 3700   2.321   1.712   0.976 -3.0253  1.6322 -0.4289
 1189SOL     OW 3701   1.564   3.172   1.403  0.2989 -0.7535  0.4492
 1189SOL    HW1 3702   1.476   3.194   1.433 -0.0027 -0.4797 -0.6021
 1189SOL    HW2 3703   1.576   3.223   1.323  2.1894  0.8324  1.6274
 1190SOL     OW 3704   0.693   0.377   1.855  0.0458 -0.1625 -0.3347
 1190SOL    HW1 3705   0.702   0.297   1.907 -0.0270 -0.4041 -0.6831
 1190SOL    HW2 3706   0.669   0.445   1.918  2.2336  0.0689  0.3025
 1191SOL     OW 3707   3.273   1.836   3.095 -0.2030  0.3046 -0.0640
 1191SOL    HW1 3708   3.253   1.847   3.002  2.0055 -1.0497 -0.7700
 1191SOL    HW2 3709   3.187   1.835   3.138 -1.4581 -1.5957 -2.3931
 1192SOL     OW 3710   2.509   3.770   0.810 -0.1042 -0.4933 -0.3743
 1192SOL    HW1 3711   2.559   3.729   0.739 -0.5825 -1.1976 -0.3102
 1192SOL    HW2 3712   2.448   3.829   0.765  0.2465 -0.2214 -0.4952
 1193SOL     OW 3713   1.923   1.729   3.936 -0.6900  0.4563 -0.2684
 1193SOL    HW1 3714   1.839   1.720   3.891 -0.7267  0.2048 -0.1545
 1193SOL    HW2 3715   1.928   1.821   3.960 -1.0066  0.4418 -0.1396
 1194SOL     OW 3716   0.694   2.584   0.086 -0.3698 -0.7708 -0.0554
 1194SOL    HW1 3717   0.675   2.513   0.147 -0.5397 -0.0714  0.7241
 1194SOL    HW2 3718   0.638   2.656   0.114  0.1399 -0.1692 -0.5311
 1195SOL     OW 3719   2.414   0.222   1.044 -0.5711 -0.4433 -0.0744
 1195SOL    HW1 3720   2.415   0.271   1.126 -0.6890 -0.6497  0.0510
 1195SOL    HW2 3721   2.327   0.238   1.008  0.4984  2.2671 -1.7537
 1196SOL     OW 3722   1.048   0.776   3.417 -0.2577  0.4688  0.0437
 1196SOL    HW1 3723   1.032   0.792   3.510  3.1961  0.3313  0.8071
 1196SOL    HW2 3724   1.113   0.706   3.415 -0.9603 -0.2352 -2.5563
 1197SOL     OW 3725   2.618   2.695   0.594 -0.1849 -0.1522  0.0856
 1197SOL    HW1 3726   2.542   2.746   0.565  0.4779  1.3135  0.8197
 1197SOL    HW2 3727   2.693   2.747   0.566  0.5118 -0.2938  1.6035
 1198SOL     OW 3728   1.882   0.928   2.608  0.2334 -0.3834  0.2453
 1198SOL    HW1 3729   1.830   0.987   2.553  0.8064 -0.3704 -0.2952
 1198SOL    HW2 3730   1.938   0.881   2.546  1.3360  0.0773  0.8701
 1199SOL     OW 3731   0.567   1.293   0.305 -0.7865 -0.0665  0.2096
 1199SOL    HW1 3732   0.617   1.236   0.246 -1.3103  0.2682 -0.5686
 1199SOL    HW2 3733   0.604   1.380   0.292 -1.4104  0.1426 -0.2023
 1200SOL     OW 3734   3.158   0.768   3.500 -0.0990 -0.4084 -0.3528
 1200SOL    HW1 3735   3.166   0.674   3.516  0.6235 -0.0864  1.5229
 1200SOL    HW2 3736   3.066   0.781   3.477  0.2321 -1.7954 -2.7512
 1201SOL     OW 3737   3.237   0.617   1.898 -0.2530  0.1152 -0.3237
 1201SOL    HW1 3738   3.231   0.660   1.984  2.7763 -1.8114  1.0178
 1201SOL    HW2 3739   3.153   0.572   1.888 -0.7570  0.5429  1.5611
 1202SOL     OW 3740   3.378   3.236   0.538 -0.3821 -0.4855  0.4802
 1202SOL    HW1 3741   3.403   3.318   0.497  0.3140 -0.7635  0.3319
 1202SOL    HW2 3742   3.364   3.176   0.464  1.4196 -1.1451  0.6232
 1203SOL     OW 3743   2.285   3.569   0.675 -0.0540 -0.0671 -0.0677
 1203SOL    HW1 3744   2.363   3.580   0.730  0.6922 -1.0555 -0.8924
 1203SOL    HW2 3745   2.215   3.552   0.737  1.0731 -2.8271  0.5932
 1204SOL     OW 3746   2.652   0.300   2.672  0.4746  0.4605 -0.1531
 1204SOL    HW1 3747   2.725   0.335   2.621  0.4518  1.1957  0.3134
 1204SOL    HW2 3748   2.629   0.218   2.627  1.9895 -0.1178  0.0675
 1205SOL     OW 3749   3.308   1.343   1.589 -0.2214  0.6079  0.1175
 1205SOL    HW1 3750   3.252   1.420   1.603 -2.9386 -1.2359  0.2080
 1205SOL    HW2 3751   3.256   1.270   1.620  2.0046 -1.3834 -0.5373
 1206SOL     OW 3752   0.016   3.391   0.927  0.0969 -0.6311  0.5428
 1206SOL    HW1 3753   0.090   3.423   0.875 -0.3954  1.2263  0.9048
 1206SOL    HW2 3754   0.026   3.296   0.927 -0.3964 -0.8911 -3.7403
 1207SOL     OW 3755   1.033   2.230   3.495 -0.1015  0.4825  0.0965
 1207SOL    HW1 3756   1.000   2.297   3.555  0.2236  1.2012 -0.5018
 1207SOL    HW2 3757   1.123   2.214   3.524 -0.1566  0.3681  0.1987
 1208SOL     OW 3758   1.790   3.875   0.171  0.0576  0.5077  0.2309
 1208SOL    HW1 3759   1.883   3.851   0.164  0.3044  1.5573 -0.1852
 1208SOL    HW2 3760   1.744   3.806   0.124  0.7851  1.0129 -1.2906
 1209SOL     OW 3761   2.351   2.901   3.179  0.1346  0.4352 -0.0241
 1209SOL    HW1 3762   2.343   2.941   3.266 -1.1636 -0.2573  0.2117
 1209SOL    HW2 3763   2.284   2.946   3.126 -0.7920 -0.8233  0.0321
 1210SOL     OW 3764   1.468   2.385   3.188 -0.1822 -1.1546  0.6328
 1210SOL    HW1 3765   1.495   2.308   3.137 -1.1640 -1.3453  0.3900
 1210SOL    HW2 3766   1.411   2.350   3.256 -2.3244 -0.4429 -0.7119
 1211SOL     OW 3767   3.492   3.832   0.462  0.0935  0.7060  0.3957
 1211SOL    HW1 3768   3.441   3.910   0.485 -1.6637  0.0982 -1.1778
 1211SOL    HW2 3769   3.551   3.819   0.536 -2.3900  1.1657  2.5856
 1212SOL     OW 3770   2.868   1.622   3.920  0.3823 -0.2728  1.0317
 1212SOL    HW1 3771   2.842   1.600   4.010  0.0587  0.5935  1.1575
 1212SOL    HW2 3772   2.964   1.617   3.921  0.3181 -1.9802  0.9612
 1213SOL     OW 3773   2.116   2.785   1.159  0.0654 -0.1320 -0.4404
 1213SOL    HW1 3774   2.101   2.861   1.104  0.2247 -0.3924 -0.8508
 1213SOL    HW2 3775   2.124   2.712   1.097  0.1174 -0.4474 -0.0663
 1214SOL     OW 3776   1.346   3.065   1.791 -0.7369  0.9192  0.3336
 1214SOL    HW1 3777   1.314   3.112   1.715  2.9791  1.6020 -1.0407
 1214SOL    HW2 3778   1.439   3.089   1.797  0.1029 -2.1629  2.7145
 1215SOL     OW 3779   2.989   1.110   1.073  0.2354 -0.3890  0.1173
 1215SOL    HW1 3780   3.072   1.090   1.032 -0.5060  0.6712 -2.0889
 1215SOL    HW2 3781   2.932   1.037   1.050 -0.1558  0.1645 -0.7574
 1216SOL     OW 3782   3.673   1.012   2.633 -0.0071 -0.3034  0.5812
 1216SOL    HW1 3783   3.718   1.085   2.675  0.8706  0.0811 -0.9320
 1216SOL    HW2 3784   3.588   1.048   2.607  0.1600 -0.0141  0.4321
 1217SOL     OW 3785   0.688   1.872   0.135 -0.0302 -1.1792  0.0190
 1217SOL    HW1 3786   0.747   1.803   0.106 -0.4312 -0.9109 -1.5513
 1217SOL    HW2 3787   0.639   1.896   0.056 -0.4123  0.3823  0.6875
 1218SOL     OW 3788   2.237   2.069   2.974  0.2041  0.2082 -0.3706
 1218SOL    HW1 3789   2.279   2.120   3.043 -0.3899  0.4536 -0.1799
 1218SOL    HW2 3790   2.187   2.133   2.924  1.3497  0.1794 -1.5995
 1219SOL     OW 3791   3.516   1.027   3.106 -0.0524  0.6113  0.3509
 1219SOL    HW1 3792   3.506   1.117   3.136 -0.3633  0.4632  0.6957
 1219SOL    HW2 3793   3.469   0.975   3.171 -1.0663  0.3082 -0.5993
 1220SOL     OW 3794   2.701   3.314   2.283  0.2235  0.5530 -0.1240
 1220SOL    HW1 3795   2.796   3.308   2.291  0.0259 -0.9625  1.6750
 1220SOL    HW2 3796   2.678   3.396   2.327  0.9029  2.9981 -3.8352
 1221SOL     OW 3797   0.133   1.807   1.442 -0.9426 -0.2840  0.4858
 1221SOL    HW1 3798   0.169   1.754   1.514 -0.5540  0.0906  0.5658
 1221SOL    HW2 3799   0.169   1.894   1.456 -3.0557  0.4980  1.4583
 1222SOL     OW 3800   3.765   3.853   1.676  0.3350  0.1508 -0.3535
 1222SOL    HW1 3801   3.761   3.766   1.716  1.4014  0.4145  0.3791
 1222SOL    HW2 3802   3.793   3.838   1.586 -1.6744 -0.4232 -0.9128
 1223SOL     OW 3803   3.427   0.877   3.966 -0.0987 -0.2882 -0.3356
 1223SOL    HW1 3804   3.523   0.882   3.958 -0.1055 -1.5335 -1.6627
 1223SOL    HW2 3805   3.395   0.891   3.877 -1.0857 -0.8678 -0.0888
 1224SOL     OW 3806   0.774   1.367   3.703 -0.6627 -0.0599 -0.7755
 1224SOL    HW1 3807   0.800   1.386   3.613 -0.5398  1.0681 -0.5286
 1224SOL    HW2 3808   0.706   1.431   3.722 -1.1293 -0.6984 -0.2638
 1225SOL     OW 3809   1.781   2.973   0.497 -0.5188 -0.6595  0.3907
 1225SOL    HW1 3810   1.770   3.057   0.454  0.3158 -1.1234 -0.7700
 1225SOL    HW2 3811   1.693   2.949   0.527 -0.8378  0.3982  0.3298
 1226SOL     OW 3812   2.248   2.061   1.963 -0.2938  0.3466  0.0465
 1226SOL    HW1 3813   2.310   2.082   1.893 -1.3143  1.5704 -0.5307
 1226SOL    HW2 3814   2.175   2.121   1.949 -1.3313 -0.6252  1.0973
 1227SOL     OW 3815   2.495   0.450   1.231  0.5170 -0.7319  0.0104
 1227SOL    HW1 3816   2.555   0.468   1.304  0.2305  0.4210 -0.0218
 1227SOL    HW2 3817   2.411   0.432   1.273 -0.2837  2.3585 -0.0241
 1228SOL     OW 3818   3.720   2.693   0.898 -0.9787  0.0686 -0.6414
 1228SOL    HW1 3819   3.631   2.659   0.886 -2.3030  3.1709 -0.6059
 1228SOL    HW2 3820   3.746   2.724   0.811 -1.3513  2.1079 -0.0941
 1229SOL     OW 3821   0.514   2.719   2.859  0.0072  0.0619  0.1575
 1229SOL    HW1 3822   0.476   2.633   2.875 -0.6964  0.2763 -0.3053
 1229SOL    HW2 3823   0.597   2.700   2.815  0.4997 -0.4123  1.2375
 1230SOL     OW 3824   1.239   3.041   2.188 -0.4379 -0.0871 -0.0421
 1230SOL    HW1 3825   1.166   2.996   2.231 -1.8264  2.6856  0.7685
 1230SOL    HW2 3826   1.313   3.030   2.248 -0.5683 -1.6735 -0.1404
 1231SOL     OW 3827   1.291   0.461   2.271  0.3038 -0.5415 -0.5501
 1231SOL    HW1 3828   1.236   0.520   2.323 -1.8331 -2.3793 -0.5998
 1231SOL    HW2 3829   1.379   0.498   2.278  0.0271 -0.2617  3.7682
 1232SOL     OW 3830  -0.012   0.093   2.579 -0.4308 -0.5915 -0.6501
 1232SOL    HW1 3831   0.045   0.035   2.629  0.0841  0.1452 -0.3742
 1232SOL    HW2 3832   0.047   0.144   2.523 -0.8931 -0.4857 -1.0485
 1233SOL     OW 3833   2.897   1.174   0.182  0.5244 -0.2851 -0.1089
 1233SOL    HW1 3834   2.802   1.174   0.182  0.5229  0.2288  0.0859
 1233SOL    HW2 3835   2.922   1.238   0.248  0.9711  1.6810 -2.0411
 1234SOL     OW 3836   2.205   0.743   0.911  0.3368 -0.1834 -0.9625
 1234SOL    HW1 3837   2.177   0.713   0.825 -1.6459  2.1332 -1.2494
 1234SOL    HW2 3838   2.267   0.814   0.893 -0.5333  0.7157 -0.5736
 1235SOL     OW 3839   3.781   0.072   0.274 -0.0267  0.0759 -0.3030
 1235SOL    HW1 3840   3.838   0.060   0.349 -2.6458 -1.1262  1.6905
 1235SOL    HW2 3841   3.780  -0.013   0.231 -0.1392  0.1421 -0.4326
 1236SOL     OW 3842   3.350   0.810   3.251  0.4258  0.0602  0.0100
 1236SOL    HW1 3843   3.309   0.890   3.286  0.5190  0.7752 -1.4318
 1236SOL    HW2 3844   3.280   0.744   3.256  0.2581  0.2900  0.9557
 1237SOL     OW 3845   2.800   1.085   1.537  1.1277 -0.4012 -0.2245
 1237SOL    HW1 3846   2.787   1.158   1.476 -1.5466 -0.6609 -0.0903
 1237SOL    HW2 3847   2.812   1.127   1.622 -1.3536 -0.0293  0.0122
 1238SOL     OW 3848   3.247   2.769   2.814 -0.0624 -0.0982 -0.2159
 1238SOL    HW1 3849   3.194   2.690   2.808  0.4391 -0.4218 -0.5421
 1238SOL    HW2 3850   3.185   2.838   2.836 -0.4363 -0.6559  0.5305
 1239SOL     OW 3851   1.410   2.645   2.280 -0.1947  0.1047  0.0831
 1239SOL    HW1 3852   1.315   2.643   2.282 -0.3181  1.7707 -1.6677
 1239SOL    HW2 3853   1.437   2.559   2.312 -2.3680 -1.7280 -2.6529
 1240SOL     OW 3854   2.398   2.109  -0.011  0.0472  0.4677  0.0448
 1240SOL    HW1 3855   2.305   2.102  -0.034  0.2788  1.3758 -1.2930
 1240SOL    HW2 3856   2.398   2.163   0.069 -0.6993 -1.7447  1.6548
 1241SOL     OW 3857   1.886   3.578   2.097  0.4379 -0.2368 -0.0083
 1241SOL    HW1 3858   1.890   3.590   2.192  0.7462  0.6275 -0.1210
 1241SOL    HW2 3859   1.915   3.488   2.083  1.4015 -0.0483  0.6552
 1242SOL     OW 3860   2.876   2.234   2.390  0.4468  0.2470  0.2891
 1242SOL    HW1 3861   2.888   2.217   2.483 -1.0633 -1.1266  0.2693
 1242SOL    HW2 3862   2.781   2.243   2.379  0.4870 -0.9359 -1.3100
 1243SOL     OW 3863   1.461   0.251   0.377  0.6155  0.1213 -0.2360
 1243SOL    HW1 3864   1.551   0.277   0.360  0.6739 -0.1650 -0.3792
 1243SOL    HW2 3865   1.438   0.294   0.459  0.9624  0.0098 -0.0776
 1244SOL     OW 3866   1.845   3.603   2.796  0.1060  0.0605  0.1547
 1244SOL    HW1 3867   1.819   3.634   2.883  0.7533  0.2628  0.2827
 1244SOL    HW2 3868   1.790   3.526   2.780  0.1047 -0.0780  0.8137
 1245SOL     OW 3869   3.229   1.474   2.403 -0.4109  0.3608 -0.3175
 1245SOL    HW1 3870   3.161   1.459   2.469  0.7909  0.2319  0.9270
 1245SOL    HW2 3871   3.198   1.550   2.354 -0.5896  1.4773  1.4374
 1246SOL     OW 3872   1.038   3.186   3.849 -0.4548  0.5992  0.4288
 1246SOL    HW1 3873   1.044   3.249   3.920  0.6504 -1.1578  2.0068
 1246SOL    HW2 3874   1.079   3.229   3.774 -1.4454  2.4106  0.8785
 1247SOL     OW 3875   2.699   1.059   3.108  0.5065 -0.4592 -0.1983
 1247SOL    HW1 3876   2.690   0.996   3.036  0.1456 -0.1620 -0.4185
 1247SOL    HW2 3877   2.710   1.144   3.064  0.1895 -0.2634  0.0966
 1248SOL     OW 3878   2.133   3.324   1.753 -0.1591  0.2141 -0.9813
 1248SOL    HW1 3879   2.067   3.258   1.774  1.4744 -1.3472 -0.4759
 1248SOL    HW2 3880   2.212   3.293   1.797  0.6621  2.6035 -0.6093
 1249SOL     OW 3881   2.571   2.018   0.696 -0.0301  0.7663 -0.2203
 1249SOL    HW1 3882   2.646   1.961   0.681  0.2087  1.2279 -0.7999
 1249SOL    HW2 3883   2.604   2.106   0.680 -1.2249  0.8445 -2.7576
 1250SOL     OW 3884   3.492   1.564   2.195 -0.2050 -0.3968 -0.5544
 1250SOL    HW1 3885   3.413   1.558   2.141 -0.6766 -0.3462  0.1268
 1250SOL    HW2 3886   3.460   1.566   2.285  0.5895 -0.6941 -0.2575
 1251SOL     OW 3887   0.907  -0.023   3.214  0.2735 -0.1057 -0.4399
 1251SOL    HW1 3888   0.972  -0.010   3.283  0.6105 -0.0676 -0.7641
 1251SOL    HW2 3889   0.889   0.065   3.181 -0.5684 -0.0161  0.2079
 1252SOL     OW 3890   3.372   0.050   0.964 -0.3609 -0.0296  0.2032
 1252SOL    HW1 3891   3.433   0.069   0.893 -2.0741  0.9192 -1.0972
 1252SOL    HW2 3892   3.370   0.129   1.017  0.6180 -0.5977  1.1336
 1253SOL     OW 3893   3.377   2.286   3.162 -0.2908  0.3415  0.5615
 1253SOL    HW1 3894   3.454   2.341   3.176 -1.2519  1.7393  0.5146
 1253SOL    HW2 3895   3.412   2.197   3.160  1.5314  1.0277 -1.0146
 1254SOL     OW 3896   2.337   0.851   1.195  0.1193  0.6098 -0.0178
 1254SOL    HW1 3897   2.246   0.822   1.204  0.6260 -1.2378 -0.4501
 1254SOL    HW2 3898   2.353   0.851   1.101  0.5421  1.0922  0.0449
 1255SOL     OW 3899   1.041   1.360   0.843 -0.1239 -0.1920 -0.8590
 1255SOL    HW1 3900   1.057   1.267   0.830  0.2103 -0.1595 -0.6930
 1255SOL    HW2 3901   0.993   1.365   0.926  1.8070 -0.0668  0.3163
 1256SOL     OW 3902   1.445   1.594   1.628  0.7604 -0.1272  0.8478
 1256SOL    HW1 3903   1.361   1.553   1.648  0.3812  0.2052 -0.0012
 1256SOL    HW2 3904   1.422   1.684   1.603  0.7268 -1.2272 -4.1524
 1257SOL     OW 3905   2.220   3.645   0.388 -0.4240 -0.5623 -1.0404
 1257SOL    HW1 3906   2.260   3.605   0.310  2.1476  3.6336 -2.1870
 1257SOL    HW2 3907   2.284   3.630   0.458 -1.0573 -1.2813 -0.6038
 1258SOL     OW 3908   3.534   2.776   0.338  1.2931 -0.4657 -0.4726
 1258SOL    HW1 3909   3.580   2.854   0.309  2.0065 -0.9976 -0.8029
 1258SOL    HW2 3910   3.594   2.704   0.319  0.4916 -1.1376 -0.5308
 1259SOL     OW 3911   3.255   2.171   2.215  0.5411  0.6073  0.0548
 1259SOL    HW1 3912   3.342   2.131   2.214  0.7489  1.0317  0.3483
 1259SOL    HW2 3913   3.214   2.137   2.295  0.8703  1.2732  0.5223
 1260SOL     OW 3914   3.391   1.839   2.437  0.2384 -0.3214  0.6528
 1260SOL    HW1 3915   3.459   1.806   2.495  0.7746  0.8951  0.7420
 1260SOL    HW2 3916   3.372   1.928   2.468  0.0834  0.1214 -0.6141
 1261SOL     OW 3917   0.131   0.056   3.612 -0.7052  0.1703  0.0949
 1261SOL    HW1 3918   0.089  -0.030   3.608  0.3236 -0.4848  2.1624
 1261SOL    HW2 3919   0.203   0.050   3.549 -0.1346 -0.7956  0.8166
 1262SOL     OW 3920   1.028   0.742   1.122 -0.2297  0.4909 -0.2432
 1262SOL    HW1 3921   0.963   0.707   1.183 -0.1425 -0.5418 -0.7142
 1262SOL    HW2 3922   1.100   0.679   1.125  0.2633  1.0332 -0.5574
 1263SOL     OW 3923   3.693   3.079   1.020 -0.3291  0.0063 -0.6017
 1263SOL    HW1 3924   3.671   3.140   1.091  3.5197  0.4255  0.4215
 1263SOL    HW2 3925   3.608   3.051   0.986 -2.3248  1.8083  2.4193
 1264SOL     OW 3926   1.196   0.088   3.240  0.2750  0.3778  0.2352
 1264SOL    HW1 3927   1.202  -0.003   3.213 -0.7304 -0.0823  1.4503
 1264SOL    HW2 3928   1.201   0.138   3.158  1.9308 -0.6803 -0.3619
 1265SOL     OW 3929   1.713   2.811   3.065  0.3272 -0.3024  0.4665
 1265SOL    HW1 3930   1.645   2.842   3.125  2.1613  1.4912  1.7840
 1265SOL    HW2 3931   1.741   2.889   3.017  1.5820 -0.9359  0.1140
 1266SOL     OW 3932   1.322   2.169   1.880 -0.2021  0.5704  0.3996
 1266SOL    HW1 3933   1.239   2.125   1.898 -0.6466  0.4213 -1.7716
 1266SOL    HW2 3934   1.303   2.262   1.891  0.3480  0.4268  3.4812
 1267SOL     OW 3935   3.778   3.709   2.053 -0.3120  0.2154 -0.5981
 1267SOL    HW1 3936   3.860   3.666   2.029  0.7724  1.6062  0.4114
 1267SOL    HW2 3937   3.721   3.697   1.976  0.2315 -2.1377 -0.7089
 1268SOL     OW 3938   3.751   2.465   0.678  0.9922 -0.1558  0.1950
 1268SOL    HW1 3939   3.683   2.523   0.644 -0.3859 -1.5618  0.4578
 1268SOL    HW2 3940   3.828   2.522   0.687  0.0151  1.3666 -0.5762
 1269SOL     OW 3941   2.354   1.377   0.723  0.1785 -0.4662  0.4837
 1269SOL    HW1 3942   2.311   1.299   0.686  1.0379 -0.2803 -1.0011
 1269SOL    HW2 3943   2.312   1.390   0.808  0.5397 -2.9939  1.1218
 1270SOL     OW 3944   1.254   1.128   3.806 -0.3021  0.1839  0.1869
 1270SOL    HW1 3945   1.237   1.034   3.812 -1.7075  0.5075  1.9870
 1270SOL    HW2 3946   1.172   1.169   3.831  0.4139  1.9155 -0.1658
 1271SOL     OW 3947   1.293   1.043   1.333  0.2412 -0.3152  0.3004
 1271SOL    HW1 3948   1.258   1.009   1.250 -2.8085 -0.1651  1.3865
 1271SOL    HW2 3949   1.363   1.103   1.307 -0.7333 -0.1264 -2.1827
 1272SOL     OW 3950   2.072   1.809   2.836 -0.1457 -0.0695  0.2552
 1272SOL    HW1 3951   2.087   1.899   2.807 -0.1152  0.2209  1.1332
 1272SOL    HW2 3952   2.101   1.809   2.927 -2.4376 -0.3136  1.0473
 1273SOL     OW 3953   0.904   1.763   0.022 -0.6479  0.1029  0.7028
 1273SOL    HW1 3954   0.965   1.834   0.043 -0.8948  0.5078  0.0803
 1273SOL    HW2 3955   0.939   1.687   0.068 -0.3000  0.5922  1.2680
 1274SOL     OW 3956   3.540   2.383   3.369 -0.1171  0.1591  0.0591
 1274SOL    HW1 3957   3.501   2.298   3.347 -1.5641  1.0024 -0.7752
 1274SOL    HW2 3958   3.531   2.390   3.464  0.8715 -1.0077  0.2632
 1275SOL     OW 3959   3.778   3.637   3.427  0.3622  0.7713 -0.0097
 1275SOL    HW1 3960   3.855   3.617   3.481  1.1282  0.1578 -1.2934
 1275SOL    HW2 3961   3.802   3.609   3.339 -0.7900  1.9264 -0.7290
 1276SOL     OW 3962   2.766   2.537   0.289  0.3610 -0.5282  0.5948
 1276SOL    HW1 3963   2.787   2.467   0.228  0.3074 -0.1665  0.1601
 1276SOL    HW2 3964   2.748   2.492   0.372  1.4146 -0.9522  0.6097
 1277SOL     OW 3965   3.415   0.180   1.314  0.4034 -0.2209  0.3429
 1277SOL    HW1 3966   3.445   0.227   1.236 -0.2486 -1.1139 -0.4780
 1277SOL    HW2 3967   3.485   0.193   1.379  0.3957  1.5450  0.0271
 1278SOL     OW 3968   0.930   1.016   1.295 -0.2421 -0.2425 -0.0791
 1278SOL    HW1 3969   1.017   1.033   1.260 -1.0217  1.2026 -1.4369
 1278SOL    HW2 3970   0.909   1.095   1.346 -0.5703 -0.7859  0.6467
 1279SOL     OW 3971   2.649   2.987   0.495 -0.7118  0.4116  0.2010
 1279SOL    HW1 3972   2.638   3.010   0.587  0.0474  2.0534 -0.0717
 1279SOL    HW2 3973   2.579   3.033   0.450 -0.0206  1.0881 -0.2148
 1280SOL     OW 3974   1.530   1.575   3.778 -0.3674  0.5215 -0.0170
 1280SOL    HW1 3975   1.485   1.529   3.707 -0.9050  1.0944 -0.0645
 1280SOL    HW2 3976   1.471   1.568   3.853  0.1253  0.0568  0.3324
 1281SOL     OW 3977   1.994   2.512   2.299 -0.3327  0.7694 -0.2267
 1281SOL    HW1 3978   2.046   2.462   2.362  0.5840  0.4870 -1.1823
 1281SOL    HW2 3979   2.057   2.571   2.257 -0.7513  0.3402 -1.4970
 1282SOL     OW 3980   0.610   1.995   1.086  0.2476  0.4561  0.4708
 1282SOL    HW1 3981   0.586   1.955   1.169  0.6658  0.7760  0.7528
 1282SOL    HW2 3982   0.633   1.921   1.029 -2.3992  0.0458 -0.1803
 1283SOL     OW 3983   1.273   3.264   1.582 -0.2798  0.2523  0.5750
 1283SOL    HW1 3984   1.217   3.336   1.552 -0.2734 -0.0605 -0.2252
 1283SOL    HW2 3985   1.262   3.196   1.515  2.0679  0.6736 -0.3521
 1284SOL     OW 3986   1.447   2.882   1.266  1.0495  0.2577 -0.1062
 1284SOL    HW1 3987   1.516   2.835   1.311 -1.0317 -1.4966  1.4387
 1284SOL    HW2 3988   1.424   2.826   1.192  0.0945 -0.0857  0.4350
 1285SOL     OW 3989   1.047   1.096   0.808 -0.5991 -0.1560  0.0587
 1285SOL    HW1 3990   0.977   1.073   0.868  0.5469 -1.3334  1.0080
 1285SOL    HW2 3991   1.046   1.028   0.741 -1.6458  0.9597 -1.1186
 1286SOL     OW 3992   1.979   3.430   0.499  0.1422  0.5648  0.2792
 1286SOL    HW1 3993   1.976   3.375   0.577 -2.7404  0.9672  0.5382
 1286SOL    HW2 3994   2.011   3.514   0.530 -0.6237  0.6124  0.9760
 1287SOL     OW 3995   1.402   0.573   2.899 -0.0666  0.2259 -0.1737
 1287SOL    HW1 3996   1.453   0.648   2.870 -0.5016 -0.0014 -1.6096
 1287SOL    HW2 3997   1.344   0.608   2.967  1.3462  0.6673  0.8297
 1288SOL     OW 3998   3.687   3.674   0.321 -0.5256 -0.5513  0.1514
 1288SOL    HW1 3999   3.771   3.683   0.367  0.2167 -0.7611 -1.1289
 1288SOL    HW2 4000   3.638   3.753   0.345 -0.2696 -0.7750  1.4933
 1289SOL     OW 4001   1.436   2.117   1.481  0.0261 -0.2095 -0.7905
 1289SOL    HW1 4002   1.413   2.208   1.466  0.0305  0.0116  0.4869
 1289SOL    HW2 4003   1.531   2.114   1.469  0.2273  0.2568  0.5074
 1290SOL     OW 4004   1.234   0.943   1.096 -0.4483 -0.0819 -0.3398
 1290SOL    HW1 4005   1.155   0.890   1.093 -1.3122  1.1789 -0.4719
 1290SOL    HW2 4006   1.206   1.031   1.072  1.2541  0.1102 -1.8694
 1291SOL     OW 4007   1.707   1.688   1.726 -0.0856 -0.2420 -0.1070
 1291SOL    HW1 4008   1.642   1.636   1.679 -0.6127 -0.6387  1.0331
 1291SOL    HW2 4009   1.766   1.721   1.657  0.7832 -3.0338 -0.8112
 1292SOL     OW 4010   3.855   3.537   2.665 -0.1940 -0.2137  0.1340
 1292SOL    HW1 4011   3.790   3.489   2.613  1.1915 -1.0762 -0.8778
 1292SOL    HW2 4012   3.879   3.612   2.610  0.2200 -0.3210  0.1675
 1293SOL     OW 4013   0.461   2.469   3.017  0.5492  0.2970  0.0042
 1293SOL    HW1 4014   0.519   2.417   3.071  1.3478 -0.1554 -1.2627
 1293SOL    HW2 4015   0.373   2.441   3.042  0.8747  0.5144  1.4570
 1294SOL     OW 4016   0.219   3.551   3.798 -0.6220  0.3974 -0.2411
 1294SOL    HW1 4017   0.310   3.520   3.799 -1.1033 -1.1226  0.5542
 1294SOL    HW2 4018   0.167   3.473   3.817 -2.1468  1.1278 -1.1536
 1295SOL     OW 4019   2.090   1.225   0.691 -0.0906  0.1955  0.3164
 1295SOL    HW1 4020   2.062   1.297   0.748 -1.1211 -1.1001  1.5190
 1295SOL    HW2 4021   2.032   1.233   0.615 -0.4278  0.4475  0.5900
 1296SOL     OW 4022   2.294   0.350   2.969 -0.2516  0.1089  0.1171
 1296SOL    HW1 4023   2.303   0.313   3.057 -0.0257  0.9456  0.4625
 1296SOL    HW2 4024   2.205   0.385   2.967  0.1268  1.1372  0.4484
 1297SOL     OW 4025   3.810   1.248   2.678  0.7573 -0.7223 -0.2262
 1297SOL    HW1 4026   3.904   1.250   2.662  0.6880 -0.7518 -0.6452
 1297SOL    HW2 4027   3.789   1.337   2.708  1.1123 -1.0403  1.0419
 1298SOL     OW 4028   3.920   3.006   1.682  1.2028  0.2868 -0.9486
 1298SOL    HW1 4029   3.984   3.023   1.612 -1.0628 -1.6324 -3.7249
 1298SOL    HW2 4030   3.952   2.927   1.725  1.0767 -0.2806 -1.8777
 1299SOL     OW 4031   3.285   0.361   1.573  1.1217  0.7204  0.2058
 1299SOL    HW1 4032   3.212   0.353   1.634  1.6985 -2.4375  0.6156
 1299SOL    HW2 4033   3.261   0.307   1.498  2.3602  0.9007 -0.3563
 1300SOL     OW 4034   1.220   0.186   2.983 -0.2907 -0.1753  0.6671
 1300SOL    HW1 4035   1.186   0.276   2.990 -0.1142 -0.1049  0.6263
 1300SOL    HW2 4036   1.221   0.168   2.889 -0.1903 -0.1674  0.6666
 1301SOL     OW 4037   3.148   1.374   0.807 -0.0792  0.5247  0.5988
 1301SOL    HW1 4038   3.088   1.424   0.863 -1.4877  1.1240 -1.3283
 1301SOL    HW2 4039   3.182   1.439   0.745 -0.6151 -0.5319 -0.8690
 1302SOL     OW 4040   1.063   0.174   2.071  0.2313  0.1528 -0.4061
 1302SOL    HW1 4041   1.109   0.241   2.020  0.2761  0.4912  0.0752
 1302SOL    HW2 4042   1.063   0.208   2.160  1.0617 -0.9109  0.0264
 1303SOL     OW 4043   1.571   1.736   0.278  0.2701  0.2210 -0.3462
 1303SOL    HW1 4044   1.538   1.811   0.229 -1.0900  0.8176  1.3792
 1303SOL    HW2 4045   1.585   1.770   0.367  1.8909 -1.0064 -0.1015
 1304SOL     OW 4046   1.888   0.606   2.831  0.1370  0.1579 -0.0652
 1304SOL    HW1 4047   1.846   0.682   2.872 -1.6530 -0.9114  0.1787
 1304SOL    HW2 4048   1.818   0.564   2.782  0.7597 -2.0808  0.8668
 1305SOL     OW 4049   3.871   3.179   2.295 -0.2700  0.9739  0.9336
 1305SOL    HW1 4050   3.873   3.273   2.312 -0.8831  1.1938 -0.1084
 1305SOL    HW2 4051   3.785   3.151   2.326  0.1027  0.6486  1.7045
 1306SOL     OW 4052   0.924   2.673   3.054 -0.0430 -0.0908  0.5501
 1306SOL    HW1 4053   0.834   2.642   3.062  0.2089 -1.0113 -0.0683
 1306SOL    HW2 4054   0.940   2.677   2.960 -0.1889  2.3587  0.5546
 1307SOL     OW 4055   1.529   0.892   0.358  0.7269  0.2427  0.6265
 1307SOL    HW1 4056   1.456   0.933   0.312  2.7767  2.5362 -0.8308
 1307SOL    HW2 4057   1.527   0.800   0.329  0.6368  1.1063 -2.3937
 1308SOL     OW 4058   0.168   2.001   1.209 -0.1489  0.6450 -0.3013
 1308SOL    HW1 4059   0.228   2.025   1.279 -1.7913  2.5774  0.5503
 1308SOL    HW2 4060   0.090   2.055   1.224 -1.8441 -1.2245 -1.7404
 1309SOL     OW 4061   2.472   1.402   2.575  0.2964  0.3280 -0.4837
 1309SOL    HW1 4062   2.519   1.416   2.493 -0.1241  2.5470 -0.4034
 1309SOL    HW2 4063   2.510   1.466   2.635 -0.4395 -0.2443  0.6229
 1310SOL     OW 4064   3.440   2.098   2.476 -0.2194  0.0700 -0.2190
 1310SOL    HW1 4065   3.489   2.077   2.396  0.5918  1.0560 -0.0114
 1310SOL    HW2 4066   3.425   2.193   2.470 -0.1403  0.1576  0.8002
 1311SOL     OW 4067   3.215   2.780   1.929 -0.1238  0.4804 -0.2770
 1311SOL    HW1 4068   3.177   2.733   2.003  1.1942 -2.9571 -1.6216
 1311SOL    HW2 4069   3.145   2.781   1.863  0.6937 -2.3003 -1.2880
 1312SOL     OW 4070   0.958   3.177   2.153 -0.5151 -0.6147  0.1795
 1312SOL    HW1 4071   0.941   3.180   2.058 -2.5638 -0.2297  0.5030
 1312SOL    HW2 4072   1.052   3.165   2.160  0.0104  1.4529 -1.9199
 1313SOL     OW 4073   0.426   2.060   0.392 -0.2486 -0.1481  0.0551
 1313SOL    HW1 4074   0.407   1.966   0.384 -0.2545 -0.0609 -1.2009
 1313SOL    HW2 4075   0.343   2.099   0.418 -1.5288  0.0183 -3.7146
 1314SOL     OW 4076   1.721   2.504   2.318  0.2609  0.0291 -0.4652
 1314SOL    HW1 4077   1.715   2.597   2.293  0.7591  0.3446  0.5052
 1314SOL    HW2 4078   1.814   2.483   2.308  0.0976 -0.4636 -0.9798
 1315SOL     OW 4079   1.858   2.160   2.388 -0.5378 -0.7671 -0.0811
 1315SOL    HW1 4080   1.770   2.149   2.351 -0.3500 -2.0141 -0.2117
 1315SOL    HW2 4081   1.912   2.096   2.342  0.3947 -0.2086  0.1875
 1316SOL     OW 4082   3.640   1.598   1.903 -0.2788  0.6726 -0.3901
 1316SOL    HW1 4083   3.590   1.617   1.823 -1.8844  0.6232  0.5718
 1316SOL    HW2 4084   3.607   1.661   1.967  0.0226 -0.1874  0.6193
 1317SOL     OW 4085   0.968   0.878   0.370  0.0937  0.3578  0.3340
 1317SOL    HW1 4086   0.977   0.973   0.364 -0.6839  0.4688  0.7571
 1317SOL    HW2 4087   0.894   0.865   0.429  0.9126 -0.5262  1.1952
 1318SOL     OW 4088   0.722   0.609   1.154  0.5905 -0.1733 -0.5131
 1318SOL    HW1 4089   0.759   0.522   1.171 -1.6937 -1.2781 -0.7372
 1318SOL    HW2 4090   0.694   0.641   1.240  1.2244  0.2492 -0.4607
 1319SOL     OW 4091   2.086   3.806   2.025  0.0370  0.6564  0.0080
 1319SOL    HW1 4092   2.181   3.805   2.024  0.0514 -0.9109  0.3108
 1319SOL    HW2 4093   2.061   3.726   2.072 -1.4192  2.0840  1.8513
 1320SOL     OW 4094   0.833   2.655   1.955 -0.0260 -0.1395 -0.2168
 1320SOL    HW1 4095   0.771   2.582   1.951 -0.4266  0.2475 -2.0459
 1320SOL    HW2 4096   0.816   2.706   1.876  2.8865 -0.2316 -1.0531
 1321SOL     OW 4097   3.553   0.906   3.483 -0.0561  0.9362  0.3548
 1321SOL    HW1 4098   3.472   0.866   3.452  0.1152 -0.2444  1.3526
 1321SOL    HW2 4099   3.527   0.991   3.517 -0.7355  0.9118 -0.0839
 1322SOL     OW 4100   2.500   2.293   0.631 -0.2638  0.0276  0.1752
 1322SOL    HW1 4101   2.520   2.321   0.542 -0.1153 -0.1314  0.1583
 1322SOL    HW2 4102   2.543   2.357   0.687 -0.2497  0.0552  0.1325
 1323SOL     OW 4103   0.114   1.048   1.421  0.0769 -0.2414 -0.3552
 1323SOL    HW1 4104   0.149   0.963   1.395 -2.6397 -1.7096  0.3494
 1323SOL    HW2 4105   0.160   1.069   1.503 -1.2828 -2.6154  1.1481
 1324SOL     OW 4106   1.758   1.422   2.903  0.1364 -0.0442 -0.0672
 1324SOL    HW1 4107   1.664   1.437   2.900  0.3210  1.1053 -2.0602
 1324SOL    HW2 4108   1.772   1.345   2.848  0.2653 -1.0987  1.3802
 1325SOL     OW 4109   2.762   1.852   0.061  0.1297  0.0289  0.4607
 1325SOL    HW1 4110   2.794   1.772   0.019  1.5830  1.1110 -0.5457
 1325SOL    HW2 4111   2.811   1.856   0.143 -1.3999 -1.1204  1.4982
 1326SOL     OW 4112   1.972   1.219   3.429  0.1484 -0.1262 -0.5992
 1326SOL    HW1 4113   1.923   1.269   3.364  0.0129  1.3122  0.5708
 1326SOL    HW2 4114   1.910   1.207   3.501  1.2049  0.9215  0.5134
 1327SOL     OW 4115   1.103   3.763   1.657  0.4097  0.4627 -0.2275
 1327SOL    HW1 4116   1.027   3.706   1.652 -0.8039  2.1130 -1.4914
 1327SOL    HW2 4117   1.086   3.820   1.732  1.2423 -0.2469  0.5357
 1328SOL     OW 4118   2.163   1.775   0.622  0.3897  0.0860 -0.3501
 1328SOL    HW1 4119   2.164   1.843   0.555 -0.0058  1.5188  1.0382
 1328SOL    HW2 4120   2.246   1.785   0.668 -1.0368  2.0285  2.0758
 1329SOL     OW 4121   2.473   0.984   2.255  0.3713  0.0527  0.5626
 1329SOL    HW1 4122   2.530   1.061   2.251  0.2107  0.1102 -1.2542
 1329SOL    HW2 4123   2.407   1.007   2.321  1.0553  0.9451  0.9659
 1330SOL     OW 4124   0.685   2.281   1.602 -0.3771  0.3018  0.3866
 1330SOL    HW1 4125   0.719   2.349   1.545  0.0189 -0.2121 -0.0061
 1330SOL    HW2 4126   0.630   2.327   1.665 -0.2235  0.9614  0.0455
 1331SOL     OW 4127   1.869   1.980   0.703  0.3285 -0.9142 -0.3328
 1331SOL    HW1 4128   1.876   2.005   0.610 -0.9696  1.7615  0.1905
 1331SOL    HW2 4129   1.943   2.023   0.745 -2.5014  3.5903  0.7522
 1332SOL     OW 4130   3.587   1.491   0.256 -0.6247  0.6423  0.0556
 1332SOL    HW1 4131   3.531   1.471   0.180 -2.1010  1.1173  0.9830
 1332SOL    HW2 4132   3.549   1.571   0.293 -0.5875 -0.1662  1.9135
 1333SOL     OW 4133   1.057   1.583   0.717  0.0205  0.5652  0.3134
 1333SOL    HW1 4134   1.102   1.576   0.632 -0.9277  2.3552 -0.3798
 1333SOL    HW2 4135   1.051   1.493   0.747  1.9400  0.0329 -0.6805
 1334SOL     OW 4136   2.635   0.083   2.482 -0.1571 -0.0100 -0.0382
 1334SOL    HW1 4137   2.545   0.095   2.452 -0.1967 -0.4940 -0.1240
 1334SOL    HW2 4138   2.688   0.095   2.403 -0.1838 -0.2152 -0.0882
 1335SOL     OW 4139   2.457   1.283   3.288 -0.4156 -0.3929  0.0511
 1335SOL    HW1 4140   2.534   1.319   3.332 -0.4559  0.4536 -0.5593
 1335SOL    HW2 4141   2.387   1.291   3.353  0.0858 -1.5972  0.7813
 1336SOL     OW 4142   1.068   3.020   2.416  0.4864  0.1904 -0.0186
 1336SOL    HW1 4143   1.059   2.958   2.488 -0.1098 -0.4874 -0.6704
 1336SOL    HW2 4144   0.981   3.028   2.378  0.7367  0.7353 -0.5108
 1337SOL     OW 4145   1.251   0.999   0.258  0.4099  1.0000  0.4257
 1337SOL    HW1 4146   1.268   1.093   0.249 -1.0812  1.1967 -0.6871
 1337SOL    HW2 4147   1.167   0.994   0.303  0.2420  0.2051  0.0407
 1338SOL     OW 4148   0.234   0.679   2.734 -0.1650 -0.9967 -0.5026
 1338SOL    HW1 4149   0.184   0.759   2.719 -0.8431 -1.0580  1.1800
 1338SOL    HW2 4150   0.169   0.610   2.739  0.1502 -1.2408  0.6531
 1339SOL     OW 4151   2.507   2.238   2.628 -0.6763  0.7864 -0.1268
 1339SOL    HW1 4152   2.567   2.233   2.702  0.0475 -0.8204 -0.7548
 1339SOL    HW2 4153   2.428   2.279   2.663 -0.3706  0.0290  1.5416
 1340SOL     OW 4154   3.116   2.463   2.372  0.1628 -0.0412 -0.0794
 1340SOL    HW1 4155   3.135   2.556   2.372 -0.9018  0.2120  1.2212
 1340SOL    HW2 4156   3.027   2.457   2.408  0.3226 -1.5678  0.1193
 1341SOL     OW 4157   0.739   0.893   1.087  0.0328  0.1148 -0.7232
 1341SOL    HW1 4158   0.751   0.801   1.111 -3.7969 -0.2613  0.4744
 1341SOL    HW2 4159   0.795   0.941   1.148  1.3883 -1.3395 -0.7607
 1342SOL     OW 4160   1.247   1.277   1.741  0.0289 -0.0620  1.1177
 1342SOL    HW1 4161   1.272   1.186   1.729  1.7862  0.2583  1.9201
 1342SOL    HW2 4162   1.271   1.297   1.832 -0.4630  1.1402  1.0060
 1343SOL     OW 4163   2.118   1.827   1.555  0.7045 -0.1105 -0.4280
 1343SOL    HW1 4164   2.066   1.840   1.634 -1.7817  0.3331 -2.0026
 1343SOL    HW2 4165   2.118   1.913   1.513  3.4637  0.0933 -0.1305
 1344SOL     OW 4166   3.390   1.562   3.198  0.5792  0.8316 -0.3864
 1344SOL    HW1 4167   3.417   1.551   3.289 -0.4574 -0.9788 -0.2490
 1344SOL    HW2 4168   3.391   1.657   3.184 -0.8107  1.2950  2.0125
 1345SOL     OW 4169   3.872   0.712   3.947  0.2788 -0.6616 -0.3747
 1345SOL    HW1 4170   3.780   0.694   3.967  0.5341 -2.1271 -0.3664
 1345SOL    HW2 4171   3.870   0.780   3.880 -0.7117  1.3910  1.6090
 1346SOL     OW 4172   2.150   2.802   0.737  0.0145  1.2436 -0.2990
 1346SOL    HW1 4173   2.080   2.862   0.711  0.1519  2.2034  1.4157
 1346SOL    HW2 4174   2.125   2.773   0.825  0.3766 -0.6107 -0.7525
 1347SOL     OW 4175   0.650   2.656   1.573  0.1735  0.1179  0.1728
 1347SOL    HW1 4176   0.731   2.706   1.578  1.5710 -2.0344 -0.0037
 1347SOL    HW2 4177   0.588   2.716   1.530  1.7213  1.6870  0.0039
 1348SOL     OW 4178   0.240   1.146   3.144  0.2244  0.2566 -0.3438
 1348SOL    HW1 4179   0.168   1.165   3.083 -1.1370  2.2626  1.6964
 1348SOL    HW2 4180   0.252   1.052   3.139 -2.2970 -0.1006 -1.0761
 1349SOL     OW 4181   0.411   1.595   3.009 -0.4043  0.5010  0.6258
 1349SOL    HW1 4182   0.349   1.610   3.080 -0.5569 -2.2434  1.1898
 1349SOL    HW2 4183   0.497   1.614   3.047 -0.2304 -3.0725  2.4593
 1350SOL     OW 4184   0.673   2.377   2.665 -0.7454 -0.7052  0.6996
 1350SOL    HW1 4185   0.719   2.460   2.678 -0.6244 -0.6264 -0.1566
 1350SOL    HW2 4186   0.742   2.317   2.636 -1.0128 -0.8185  0.2878
 1351SOL     OW 4187   1.449   3.849   1.964  0.0136 -0.6832  0.0215
 1351SOL    HW1 4188   1.543   3.858   1.952 -0.0049  1.6099  1.0779
 1351SOL    HW2 4189   1.439   3.800   2.045  0.2687 -1.5339 -0.4512
 1352SOL     OW 4190   1.690   0.387   0.824 -0.0404 -0.6328 -0.1766
 1352SOL    HW1 4191   1.686   0.449   0.751  0.6925  0.3246  0.5645
 1352SOL    HW2 4192   1.617   0.327   0.810 -0.9498  0.5839 -0.7645
 1353SOL     OW 4193   1.975   0.717   0.547  0.0082  0.1127 -0.1241
 1353SOL    HW1 4194   2.036   0.740   0.617 -0.5031 -0.9095  0.6936
 1353SOL    HW2 4195   2.030   0.710   0.469  0.6168  1.1167  0.1966
 1354SOL     OW 4196   3.234   2.181   3.582 -0.3612  0.2582 -0.3142
 1354SOL    HW1 4197   3.154   2.234   3.574 -0.8969 -0.7395 -2.1649
 1354SOL    HW2 4198   3.212   2.113   3.646 -0.1472  1.3521  0.9812
 1355SOL     OW 4199   3.957   3.069   3.863  0.1753  0.1122 -0.6030
 1355SOL    HW1 4200   4.034   3.012   3.862  0.8264  0.9716 -0.8234
 1355SOL    HW2 4201   3.890   3.018   3.908  0.4995 -1.1193 -1.4593
 1356SOL     OW 4202   2.606   2.350   2.961 -0.5596  0.1851 -0.1958
 1356SOL    HW1 4203   2.580   2.441   2.950 -0.6691  0.1512 -0.2119
 1356SOL    HW2 4204   2.543   2.313   3.022 -1.2001 -0.1782 -1.0593
 1357SOL     OW 4205   1.782   0.931   3.702 -0.0680 -0.5797 -0.1341
 1357SOL    HW1 4206   1.785   0.840   3.673 -2.1102 -1.0839  1.0305
 1357SOL    HW2 4207   1.746   0.927   3.790  1.6034  1.2478  0.7060
 1358SOL     OW 4208   2.116   2.666   3.262 -0.4665  0.3990  0.2175
 1358SOL    HW1 4209   2.189   2.695   3.206  0.0649  0.5815  0.9817
 1358SOL    HW2 4210   2.062   2.611   3.205 -1.4180  2.7169 -1.2423
 1359SOL     OW 4211   0.790   3.269   0.622 -0.0937 -0.1890 -0.1522
 1359SOL    HW1 4212   0.700   3.295   0.644 -0.5021 -0.7453 -1.1041
 1359SOL    HW2 4213   0.842   3.347   0.641 -0.9788  0.6006 -0.8640
 1360SOL     OW 4214   3.819   3.790   0.136 -0.2874 -0.1175 -0.0209
 1360SOL    HW1 4215   3.756   3.817   0.068  0.9076  1.1435 -0.6803
 1360SOL    HW2 4216   3.771   3.726   0.189 -2.1610  0.8848 -0.4168
 1361SOL     OW 4217   0.295   3.136   0.402 -0.4802  0.0600 -0.4078
 1361SOL    HW1 4218   0.207   3.114   0.430  0.2215  0.1624  2.1691
 1361SOL    HW2 4219   0.331   3.053   0.368 -0.6974 -0.6848  1.1042
 1362SOL     OW 4220   3.978   0.488   2.808  0.4888 -0.2491  0.0486
 1362SOL    HW1 4221   3.928   0.432   2.749  1.3056  0.7297 -1.6454
 1362SOL    HW2 4222   3.913   0.549   2.844 -0.0085 -0.8221  0.1410
 1363SOL     OW 4223   1.176   3.593   1.388 -0.0295 -0.3875 -0.3362
 1363SOL    HW1 4224   1.160   3.619   1.478 -0.1922 -1.2679 -0.1070
 1363SOL    HW2 4225   1.155   3.671   1.336 -1.2901 -0.3047  0.2708
 1364SOL     OW 4226   1.670   1.375   1.997 -0.5439  0.4870 -0.2899
 1364SOL    HW1 4227   1.708   1.440   2.056 -0.7169 -1.7228  2.4209
 1364SOL    HW2 4228   1.595   1.339   2.045  0.4041 -2.7303 -0.9897
 1365SOL     OW 4229   3.055   1.849   2.036  0.3753 -0.0369 -0.3849
 1365SOL    HW1 4230   3.019   1.900   2.108 -2.1087  2.0418 -2.8388
 1365SOL    HW2 4231   2.991   1.780   2.020  1.0946 -0.7241 -0.3902
 1366SOL     OW 4232   1.937   3.595   1.074 -0.5924 -0.5943  0.4169
 1366SOL    HW1 4233   1.989   3.673   1.092 -0.1778 -0.4622 -1.1642
 1366SOL    HW2 4234   1.867   3.597   1.138 -0.1416  0.6559  0.8989
 1367SOL     OW 4235   3.459   1.342   2.451 -0.2727  0.3554 -0.7604
 1367SOL    HW1 4236   3.375   1.379   2.424 -0.3543  0.8402  0.1154
 1367SOL    HW2 4237   3.435   1.267   2.507 -0.1236  0.5155 -0.4810
 1368SOL     OW 4238   2.159   2.219   2.258 -0.5473  0.3899  0.4292
 1368SOL    HW1 4239   2.129   2.272   2.332 -0.3652  1.0492  0.0334
 1368SOL    HW2 4240   2.252   2.240   2.249 -0.7961  1.0702 -0.6167
 1369SOL     OW 4241   2.773   1.679   1.524  0.1940 -0.3154 -0.7851
 1369SOL    HW1 4242   2.841   1.614   1.506  0.0858 -0.7165  0.1706
 1369SOL    HW2 4243   2.692   1.627   1.529  0.0711 -0.0741 -0.2473
 1370SOL     OW 4244   1.636   0.955   1.087  0.0804 -0.2474  0.7419
 1370SOL    HW1 4245   1.622   1.013   1.013 -2.4830  0.5492  1.7632
 1370SOL    HW2 4246   1.674   0.876   1.049 -1.0388  0.1840 -1.4078
 1371SOL     OW 4247   1.847   1.583   1.091 -0.1837  0.1624 -0.1977
 1371SOL    HW1 4248   1.782   1.513   1.104  0.4656 -0.4262 -0.0706
 1371SOL    HW2 4249   1.825   1.620   1.006 -1.3733  0.7076  0.3239
 1372SOL     OW 4250   3.317   0.916   1.234 -0.3637 -0.0229 -0.3735
 1372SOL    HW1 4251   3.319   0.827   1.198 -0.9015  0.0476 -0.5958
 1372SOL    HW2 4252   3.302   0.904   1.328  1.5488 -0.2288 -0.0427
 1373SOL     OW 4253   0.612   2.244   0.716 -0.1389 -0.4782 -1.1583
 1373SOL    HW1 4254   0.689   2.200   0.680 -0.4974 -2.5438  0.3891
 1373SOL    HW2 4255   0.647   2.322   0.760  1.1664 -1.5583 -0.1732
 1374SOL     OW 4256   1.745   1.195   2.741 -0.6274 -0.0841 -0.2656
 1374SOL    HW1 4257   1.839   1.182   2.730 -0.4071 -0.1092  1.3852
 1374SOL    HW2 4258   1.710   1.106   2.752 -0.5072  0.0355  1.2981
 1375SOL     OW 4259   2.145   1.778   2.201 -0.2974 -0.5229  0.0705
 1375SOL    HW1 4260   2.113   1.688   2.208 -0.4804 -0.4066  0.8443
 1375SOL    HW2 4261   2.066   1.832   2.204 -0.3940 -0.3881 -2.5842
 1376SOL     OW 4262   2.039   3.790   0.200 -0.1769 -0.4435  0.4131
 1376SOL    HW1 4263   2.064   3.755   0.286  1.5223 -1.3353 -0.4023
 1376SOL    HW2 4264   2.113   3.845   0.175 -2.1385  2.7327  1.0121
 1377SOL     OW 4265   0.302   0.622   3.935 -0.6278 -0.2071  0.0025
 1377SOL    HW1 4266   0.294   0.529   3.913 -0.7634 -0.1149 -0.3425
 1377SOL    HW2 4267   0.233   0.665   3.884 -0.7725  0.0449  0.4021
 1378SOL     OW 4268   3.794   1.874   0.755  0.1074  0.3371  0.4339
 1378SOL    HW1 4269   3.795   1.962   0.718 -0.4097  0.1789  0.0250
 1378SOL    HW2 4270   3.719   1.874   0.815 -1.8460 -0.6998 -1.8408
 1379SOL     OW 4271   3.240   1.031   3.400  0.1578  0.0070  0.4460
 1379SOL    HW1 4272   3.210   0.969   3.466 -0.8857 -2.8774 -2.4671
 1379SOL    HW2 4273   3.168   1.093   3.391  0.2454  0.3350  1.8126
 1380SOL     OW 4274   1.522   3.461   0.117 -0.0108 -0.3097  0.4816
 1380SOL    HW1 4275   1.445   3.427   0.162  0.4485 -2.9474 -0.5214
 1380SOL    HW2 4276   1.536   3.400   0.045  3.0824  0.0035  0.6851
 1381SOL     OW 4277   2.203   2.759   0.468 -0.3123  0.5421  0.6251
 1381SOL    HW1 4278   2.194   2.774   0.562  0.4132 -0.2723  0.8308
 1381SOL    HW2 4279   2.212   2.847   0.431  0.0280  0.8401  1.3792
 1382SOL     OW 4280   3.532   2.663   2.903 -0.0377  0.2668  0.2691
 1382SOL    HW1 4281   3.475   2.737   2.881  0.5291  0.7364  0.3681
 1382SOL    HW2 4282   3.535   2.610   2.823  0.6961  1.1003 -0.2575
 1383SOL     OW 4283   3.849   2.375   2.683  0.1984 -0.6123 -1.3614
 1383SOL    HW1 4284   3.928   2.426   2.667 -1.4394  2.3257 -0.8765
 1383SOL    HW2 4285   3.856   2.349   2.775  0.6961 -0.5784 -1.3869
 1384SOL     OW 4286   1.340   1.886   0.083 -0.4729 -0.2310  0.2858
 1384SOL    HW1 4287   1.383   1.960   0.127 -0.0197 -0.8090  0.8269
 1384SOL    HW2 4288   1.254   1.920   0.058  0.3518  1.0308 -1.0208
 1385SOL     OW 4289   0.307   0.963   0.118  0.0228  0.0865 -0.0652
 1385SOL    HW1 4290   0.240   0.978   0.051 -0.4384 -0.7344  0.1940
 1385SOL    HW2 4291   0.268   0.997   0.198 -1.3321 -2.8374  0.6793
 1386SOL     OW 4292   1.200   3.650   0.232 -0.9189 -0.2389  0.8690
 1386SOL    HW1 4293   1.173   3.730   0.277  0.7266  1.2937 -0.6897
 1386SOL    HW2 4294   1.202   3.675   0.139 -1.2949 -2.4038  0.2321
 1387SOL     OW 4295   3.089   0.585   1.487 -0.8262 -0.7557 -0.5489
 1387SOL    HW1 4296   3.054   0.521   1.549 -0.3616 -0.5849 -0.1014
 1387SOL    HW2 4297   3.018   0.647   1.473 -0.5684 -0.1516  0.7012
 1388SOL     OW 4298   0.300   2.303   0.198  0.2630 -0.6514  0.1227
 1388SOL    HW1 4299   0.310   2.218   0.154  1.3845 -0.8079  0.6609
 1388SOL    HW2 4300   0.220   2.293   0.249 -0.5862 -0.7636 -1.1675
 1389SOL     OW 4301   2.550   1.937   2.742  0.0651 -0.2884 -0.0189
 1389SOL    HW1 4302   2.538   1.959   2.650 -2.2928 -0.7833  0.1132
 1389SOL    HW2 4303   2.578   2.018   2.783 -0.2780  0.3067 -0.9344
 1390SOL     OW 4304   2.770   0.878   0.523 -0.2452  0.1957 -0.7806
 1390SOL    HW1 4305   2.716   0.949   0.489  0.3478  0.1716 -1.8007
 1390SOL    HW2 4306   2.767   0.811   0.455  1.2635  0.3003 -0.9934
 1391SOL     OW 4307   3.874   0.318   0.737 -0.1286 -0.0484 -0.5573
 1391SOL    HW1 4308   3.902   0.408   0.725 -1.3629  0.5566  0.8508
 1391SOL    HW2 4309   3.839   0.292   0.651 -0.1779  0.9468 -0.8463
 1392SOL     OW 4310   1.728   3.722   0.470 -0.3321 -0.2818  0.8315
 1392SOL    HW1 4311   1.737   3.642   0.418 -1.7759 -2.1924  3.2534
 1392SOL    HW2 4312   1.701   3.789   0.407 -0.5888 -2.0616 -1.0770
 1393SOL     OW 4313   1.467   2.373   0.858  0.1088  0.3176  0.1241
 1393SOL    HW1 4314   1.519   2.330   0.791 -0.6269 -0.6475  0.1526
 1393SOL    HW2 4315   1.529   2.389   0.930  0.9921  1.7144 -0.8930
 1394SOL     OW 4316   3.109   1.984   3.758  0.1539 -0.1813  0.0346
 1394SOL    HW1 4317   3.140   2.000   3.847  0.9896  1.1111 -0.4494
 1394SOL    HW2 4318   3.016   2.006   3.760  0.1081 -0.4175  0.6462
 1395SOL     OW 4319   2.552   3.357   0.071 -0.7061  0.3714  0.6263
 1395SOL    HW1 4320   2.619   3.393   0.129 -0.4334 -0.8335  1.0945
 1395SOL    HW2 4321   2.574   3.391  -0.015  0.3276  0.2465  0.8267
 1396SOL     OW 4322   0.809   3.153   1.394 -0.1207  0.4343  0.0194
 1396SOL    HW1 4323   0.770   3.110   1.470 -0.3870 -0.7493 -0.7617
 1396SOL    HW2 4324   0.898   3.118   1.389  0.3002  1.4075  0.4626
 1397SOL     OW 4325   2.643   1.195   2.239  0.4577 -0.4349 -0.8443
 1397SOL    HW1 4326   2.722   1.142   2.253 -0.8707 -1.8854  2.1717
 1397SOL    HW2 4327   2.606   1.162   2.158  2.2509 -0.6068 -1.6501
 1398SOL     OW 4328   2.338   2.045   1.470  0.0375  0.3045  0.3488
 1398SOL    HW1 4329   2.357   1.973   1.530 -1.0455  0.2912  0.6892
 1398SOL    HW2 4330   2.305   2.115   1.526  0.2145  0.7464 -0.0891
 1399SOL     OW 4331   3.073   3.706   3.645  0.3789  0.0090  0.4437
 1399SOL    HW1 4332   3.057   3.622   3.689 -3.7904 -0.3106 -1.2211
 1399SOL    HW2 4333   3.128   3.683   3.570  0.4862 -0.9877  0.8103
 1400SOL     OW 4334   1.042   0.104   1.172  0.4267 -0.1784  0.0539
 1400SOL    HW1 4335   1.015   0.135   1.258  1.0344  0.7202 -0.0595
 1400SOL    HW2 4336   0.984   0.148   1.110  0.0944 -0.6987 -0.0108
 1401SOL     OW 4337   2.059   1.678   3.348  0.1850 -0.0156 -0.4232
 1401SOL    HW1 4338   2.062   1.595   3.396 -0.4189  0.7590  1.0237
 1401SOL    HW2 4339   2.136   1.726   3.379  0.9785 -0.3315 -1.8547
 1402SOL     OW 4340   1.055   3.057   0.508 -0.0561  0.1689  0.7425
 1402SOL    HW1 4341   1.015   3.011   0.581  1.1884 -0.8211  0.8343
 1402SOL    HW2 4342   1.108   3.125   0.548 -0.1984  0.3033  0.7048
 1403SOL     OW 4343   2.217   0.302   1.680 -0.4715 -0.0460 -0.1644
 1403SOL    HW1 4344   2.175   0.232   1.630  1.2332  0.0970 -1.9301
 1403SOL    HW2 4345   2.149   0.367   1.692 -0.9595 -0.0410 -2.4837
 1404SOL     OW 4346   1.251   1.687   3.698 -0.1536  0.1091  0.0249
 1404SOL    HW1 4347   1.164   1.694   3.660  0.8553  0.8514 -2.3925
 1404SOL    HW2 4348   1.277   1.778   3.717  0.8837  0.1508 -1.3891
 1405SOL     OW 4349   3.086   3.642   1.137  0.4127 -0.0755  0.3871
 1405SOL    HW1 4350   3.056   3.665   1.225 -1.5581  0.0322 -0.2628
 1405SOL    HW2 4351   3.172   3.682   1.129 -0.1116  1.3691  1.6610
 1406SOL     OW 4352   1.720   3.323   2.742 -0.4070  0.1086 -0.2847
 1406SOL    HW1 4353   1.659   3.249   2.742  0.7150 -0.9098 -2.3353
 1406SOL    HW2 4354   1.715   3.357   2.653  2.4994 -0.4859 -0.7702
 1407SOL     OW 4355   1.879   0.108   2.947  0.1638 -0.0212  0.1777
 1407SOL    HW1 4356   1.840   0.118   3.034  0.2869  0.7095  0.1506
 1407SOL    HW2 4357   1.929   0.188   2.934  0.9963 -0.5839 -0.1387
 1408SOL     OW 4358   0.469   3.234   1.656  0.0099 -0.5556 -0.0708
 1408SOL    HW1 4359   0.402   3.200   1.596 -0.4895 -1.7167  1.0861
 1408SOL    HW2 4360   0.424   3.240   1.740  0.2524  2.4941 -0.0381
 1409SOL     OW 4361   1.163   3.948   0.833  0.0236 -0.3506 -0.6974
 1409SOL    HW1 4362   1.172   4.035   0.870 -2.7521 -0.1161 -0.3230
 1409SOL    HW2 4363   1.204   3.890   0.897  1.8985  0.6276 -0.9480
 1410SOL     OW 4364   2.753   2.591   1.046  0.5173 -0.1531  0.2241
 1410SOL    HW1 4365   2.689   2.655   1.077  1.4177  1.6961 -1.4878
 1410SOL    HW2 4366   2.740   2.514   1.101 -1.2730  1.1648  1.7339
 1411SOL     OW 4367   0.535   1.443   2.524  0.6019 -0.6056 -0.4649
 1411SOL    HW1 4368   0.445   1.440   2.490  0.7931 -0.2568 -1.0079
 1411SOL    HW2 4369   0.524   1.438   2.619  0.0819 -2.1176 -0.5696
 1412SOL     OW 4370   0.109   3.503   1.597 -0.6530 -0.5524  0.9031
 1412SOL    HW1 4371   0.084   3.420   1.556  0.0007  0.1704 -1.1269
 1412SOL    HW2 4372   0.154   3.478   1.677  0.1399 -2.2141 -0.0069
 1413SOL     OW 4373   3.488   0.562   1.086  0.5964 -0.3027 -0.5664
 1413SOL    HW1 4374   3.439   0.603   1.158 -0.1205  0.2250 -1.3285
 1413SOL    HW2 4375   3.579   0.588   1.101  0.6851 -1.3095  0.8873
 1414SOL     OW 4376   0.645   1.073   0.671 -0.2724  0.1107  0.7391
 1414SOL    HW1 4377   0.642   1.039   0.760  2.4940 -0.5708  0.6607
 1414SOL    HW2 4378   0.677   1.000   0.618  0.5128  1.2127 -0.3682
 1415SOL     OW 4379   1.866   3.887   2.445 -0.3277  0.5732 -0.1393
 1415SOL    HW1 4380   1.874   3.909   2.352 -0.5006 -1.2230 -0.6170
 1415SOL    HW2 4381   1.772   3.874   2.459 -0.1237 -1.4257 -0.3179
 1416SOL     OW 4382   1.869   0.511   1.483  0.1797  0.3256  0.1621
 1416SOL    HW1 4383   1.815   0.497   1.561  1.8530  0.6606  1.4596
 1416SOL    HW2 4384   1.816   0.566   1.426 -1.4137 -0.6031  0.6786
 1417SOL     OW 4385   0.014   1.222   2.995  0.8987  0.0164  0.4354
 1417SOL    HW1 4386   0.060   1.268   2.924  1.4628 -1.0097  0.1119
 1417SOL    HW2 4387  -0.061   1.278   3.015 -0.0296 -0.2721 -1.8737
 1418SOL     OW 4388   1.643   2.223   2.242 -0.1034  0.2138 -0.0964
 1418SOL    HW1 4389   1.636   2.307   2.287 -2.7698  0.0442 -0.0232
 1418SOL    HW2 4390   1.556   2.208   2.205  0.7035 -1.8407 -1.3770
 1419SOL     OW 4391   1.354   1.238   0.087 -0.0670 -0.1910  0.4378
 1419SOL    HW1 4392   1.374   1.315   0.035  1.1534 -1.0142 -0.3538
 1419SOL    HW2 4393   1.285   1.193   0.038 -1.2843  0.7195  1.2560
 1420SOL     OW 4394   2.170   1.495   0.289  0.5644 -0.1100  0.2746
 1420SOL    HW1 4395   2.135   1.527   0.373  1.2885  0.8319  0.2217
 1420SOL    HW2 4396   2.265   1.505   0.297  0.6565 -0.2604 -0.5640
 1421SOL     OW 4397   0.500   2.422   1.718  0.1642  0.1355 -0.7195
 1421SOL    HW1 4398   0.518   2.502   1.669  2.7254  0.5549  0.7136
 1421SOL    HW2 4399   0.412   2.435   1.753 -0.2028  1.4805 -2.0424
 1422SOL     OW 4400   1.427   1.134   3.031  0.1024 -0.2674 -0.7931
 1422SOL    HW1 4401   1.459   1.186   2.957  1.4201 -0.0305 -0.0892
 1422SOL    HW2 4402   1.489   1.152   3.101 -0.9646 -0.7065  0.2933
 1423SOL     OW 4403   3.028   0.382   1.674  0.1536  0.4633 -0.1901
 1423SOL    HW1 4404   3.013   0.299   1.719 -1.0496 -0.3405 -1.9921
 1423SOL    HW2 4405   2.965   0.443   1.714 -0.2566  0.0154 -0.1481
 1424SOL     OW 4406   1.619   1.130   1.782 -1.1367  0.0812 -0.2302
 1424SOL    HW1 4407   1.594   1.090   1.865 -0.7854 -1.6853 -0.9315
 1424SOL    HW2 4408   1.683   1.197   1.806 -1.6580  0.1662  0.9838
 1425SOL     OW 4409   0.808   1.682   3.736  0.1674 -0.5975  0.0330
 1425SOL    HW1 4410   0.864   1.680   3.659  1.7013 -1.0855  1.1207
 1425SOL    HW2 4411   0.868   1.690   3.810 -1.2677  0.0583  1.1808
 1426SOL     OW 4412   0.708   0.487   1.579  0.1616 -0.1301 -0.1759
 1426SOL    HW1 4413   0.751   0.451   1.657  0.3326  1.5932  0.5638
 1426SOL    HW2 4414   0.775   0.542   1.538 -0.1981 -0.3484 -1.0727
 1427SOL     OW 4415   1.091   0.236   2.332 -0.2188  0.6154  0.0744
 1427SOL    HW1 4416   1.045   0.246   2.416  1.4608 -1.4493  1.3337
 1427SOL    HW2 4417   1.152   0.309   2.329 -0.8803  1.1811  0.2440
 1428SOL     OW 4418   3.871   3.450   2.350  0.5082  0.1956 -0.5179
 1428SOL    HW1 4419   3.783   3.426   2.321  0.2160  0.0761  0.4154
 1428SOL    HW2 4420   3.859   3.534   2.395  0.6515 -0.3688  0.6229
 1429SOL     OW 4421   3.690   2.383   2.405  0.0164  0.1188 -0.7041
 1429SOL    HW1 4422   3.699   2.306   2.351  3.0168  0.4053 -0.7668
 1429SOL    HW2 4423   3.744   2.365   2.482  0.3185  1.8903 -0.4517
 1430SOL     OW 4424   3.197   0.413   1.139  0.1235  0.4740  0.7405
 1430SOL    HW1 4425   3.261   0.352   1.174 -1.0587  0.4603  3.0702
 1430SOL    HW2 4426   3.231   0.499   1.163  0.4689  0.6237 -0.2242
 1431SOL     OW 4427   1.559   3.044   2.677  0.4678  0.3325  0.3451
 1431SOL    HW1 4428   1.589   2.960   2.713 -0.5687 -0.3912 -0.4335
 1431SOL    HW2 4429   1.463   3.039   2.682  0.4081  2.1428  1.7716
 1432SOL     OW 4430   3.537   3.555   3.535 -0.0135  0.0239 -0.0826
 1432SOL    HW1 4431   3.573   3.470   3.562  0.5918  0.5871  0.9445
 1432SOL    HW2 4432   3.609   3.597   3.488  0.3041  0.6678  0.9399
 1433SOL     OW 4433   0.885   0.292   2.495 -0.1411  0.4573  0.2026
 1433SOL    HW1 4434   0.838   0.334   2.423  1.2189  1.7366  0.0100
 1433SOL    HW2 4435   0.823   0.228   2.531 -1.5548  1.2288 -0.7960
 1434SOL     OW 4436   2.158   1.995   1.109 -0.0990  0.6183 -0.5550
 1434SOL    HW1 4437   2.109   1.986   1.028  1.6498  1.6066 -1.7824
 1434SOL    HW2 4438   2.234   1.938   1.097  0.4391  1.1686  0.1667
 1435SOL     OW 4439   0.461   1.943   1.843 -1.0959 -0.1645 -0.3871
 1435SOL    HW1 4440   0.375   1.902   1.828 -0.6382 -0.8608 -1.1577
 1435SOL    HW2 4441   0.520   1.870   1.858 -0.8541  0.3597  1.4834
 1436SOL     OW 4442   0.331   1.149   1.563  0.1038 -0.2273  0.8108
 1436SOL    HW1 4443   0.356   1.242   1.562 -1.0689  0.1022  1.2854
 1436SOL    HW2 4444   0.287   1.136   1.647 -0.2559 -1.0792  0.5034
 1437SOL     OW 4445   3.484   2.331   3.964  0.2557 -0.0638  0.4996
 1437SOL    HW1 4446   3.473   2.336   3.869  1.4009  0.3953  0.3739
 1437SOL    HW2 4447   3.512   2.240   3.980 -0.4727 -0.2978  0.4645
 1438SOL     OW 4448   1.864   2.708   1.553  0.1023  0.1215  0.0769
 1438SOL    HW1 4449   1.946   2.689   1.508  0.3737  1.5611 -0.0807
 1438SOL    HW2 4450   1.872   2.662   1.636  0.2508 -1.3012 -0.6958
 1439SOL     OW 4451   0.104   2.068   0.932  0.2618  0.2916 -0.4957
 1439SOL    HW1 4452   0.037   2.135   0.914 -1.5908 -1.9457 -2.5093
 1439SOL    HW2 4453   0.175   2.117   0.974 -0.1177  3.9373 -3.5240
 1440SOL     OW 4454   0.678   1.145   2.247  0.8215  0.3520 -0.7028
 1440SOL    HW1 4455   0.677   1.225   2.194  1.7673 -0.8153 -2.5750
 1440SOL    HW2 4456   0.764   1.147   2.291  0.3322  0.9508  0.2797
 1441SOL     OW 4457   2.590   0.361   2.288 -0.1335 -0.0566  0.1143
 1441SOL    HW1 4458   2.527   0.432   2.277 -0.5773 -0.6533 -1.7177
 1441SOL    HW2 4459   2.622   0.370   2.377 -1.5028  1.3456  0.5099
 1442SOL     OW 4460   3.786   2.529   3.430  0.5600 -0.1568 -0.6728
 1442SOL    HW1 4461   3.818   2.443   3.457  1.1709  0.4389  0.6173
 1442SOL    HW2 4462   3.697   2.514   3.399  1.3000 -1.5320 -2.2520
 1443SOL     OW 4463   1.574   3.462   3.083 -0.0187 -0.2244 -0.1596
 1443SOL    HW1 4464   1.520   3.396   3.127 -0.8903 -0.2226 -1.1874
 1443SOL    HW2 4465   1.606   3.518   3.154  0.0385 -1.2454  0.6360
 1444SOL     OW 4466   2.556   2.467   1.417 -0.8580 -0.8947  0.0260
 1444SOL    HW1 4467   2.484   2.428   1.466 -1.1898 -0.3078  0.0228
 1444SOL    HW2 4468   2.579   2.546   1.467 -0.2354 -1.0559  0.0094
 1445SOL     OW 4469   0.116   1.344   3.636 -0.8702  0.3823 -0.2226
 1445SOL    HW1 4470   0.186   1.285   3.606 -1.0233  0.0176  0.1254
 1445SOL    HW2 4471   0.157   1.397   3.704 -0.7175  0.7194 -0.5730
 1446SOL     OW 4472   0.655   0.289   0.258  0.1078 -0.2971  0.2912
 1446SOL    HW1 4473   0.749   0.282   0.277 -0.0941  1.5087  2.3755
 1446SOL    HW2 4474   0.646   0.374   0.214 -0.6475  0.0985  1.1647
 1447SOL     OW 4475   1.085   1.453   1.207  0.1197  0.4436  0.0115
 1447SOL    HW1 4476   0.997   1.481   1.182  0.7381  0.9106 -1.7559
 1447SOL    HW2 4477   1.143   1.497   1.145  1.9588  2.9486  3.1899
 1448SOL     OW 4478   0.148   2.740   1.572  0.1065 -0.2703 -0.1626
 1448SOL    HW1 4479   0.223   2.795   1.596  0.1367  0.2875 -1.4698
 1448SOL    HW2 4480   0.095   2.737   1.651  1.0314  0.1115  0.4940
 1449SOL     OW 4481   0.291  -0.003   2.630  0.0206 -0.4558  0.0524
 1449SOL    HW1 4482   0.381   0.022   2.612 -0.5451  1.0307 -0.8875
 1449SOL    HW2 4483   0.252   0.073   2.672 -1.6079  0.1494 -2.3543
 1450SOL     OW 4484   3.484   0.294   1.090  0.1942 -0.2504  0.5156
 1450SOL    HW1 4485   3.487   0.384   1.057  1.6808 -0.1873  0.7969
 1450SOL    HW2 4486   3.575   0.265   1.090  0.0445 -0.8773  2.8717
 1451SOL     OW 4487   0.781   3.878   1.375 -0.0075  0.1809  0.0664
 1451SOL    HW1 4488   0.850   3.827   1.332 -0.7543 -0.3683 -0.4987
 1451SOL    HW2 4489   0.724   3.812   1.415  0.7072  0.6560  2.0228
 1452SOL     OW 4490   0.842   0.738   2.512  0.3779  0.0433  0.6084
 1452SOL    HW1 4491   0.843   0.805   2.579  0.5100  1.5229 -0.8102
 1452SOL    HW2 4492   0.818   0.784   2.432 -0.2538 -1.7379 -0.2902
 1453SOL     OW 4493   3.305   3.874   0.685  0.0206  0.0213 -0.7559
 1453SOL    HW1 4494   3.308   3.901   0.777  0.1374 -2.1035 -0.0807
 1453SOL    HW2 4495   3.326   3.781   0.687  1.2959  0.1872 -3.0758
 1454SOL     OW 4496   3.782   2.103   1.863  0.4484 -0.0703 -0.1668
 1454SOL    HW1 4497   3.698   2.058   1.860  0.9108 -0.9364 -1.0181
 1454SOL    HW2 4498   3.766   2.189   1.824 -0.3557  0.3671  1.0786
 1455SOL     OW 4499   3.540   0.469   2.917 -0.6084 -0.1737  0.2239
 1455SOL    HW1 4500   3.486   0.512   2.983 -0.4331  2.8718 -1.4386
 1455SOL    HW2 4501   3.478   0.417   2.866 -0.7836 -2.3421  2.4780
 1456SOL     OW 4502   1.735   0.143   3.775  0.0196 -0.3514 -0.0646
 1456SOL    HW1 4503   1.821   0.112   3.805  0.0567  0.4492  0.6927
 1456SOL    HW2 4504   1.723   0.101   3.690  0.0798 -2.3782  0.8731
 1457SOL     OW 4505   3.545   0.677   1.681  0.0115  0.4308 -0.2049
 1457SOL    HW1 4506   3.572   0.631   1.761  1.2700  2.1907  0.4404
 1457SOL    HW2 4507   3.455   0.705   1.700 -1.1993 -2.5773 -1.0409
 1458SOL     OW 4508   1.667   3.678   3.738 -0.0301  0.0465 -0.1603
 1458SOL    HW1 4509   1.756   3.707   3.759  0.1832 -0.1571 -0.7503
 1458SOL    HW2 4510   1.646   3.723   3.656 -0.4283  0.0104 -0.0808
 1459SOL     OW 4511   2.520   2.685   1.129  0.2879 -0.6233 -0.0896
 1459SOL    HW1 4512   2.479   2.602   1.101 -1.5938  0.7834 -1.7841
 1459SOL    HW2 4513   2.468   2.753   1.085  3.3977  1.3907 -0.9266
 1460SOL     OW 4514   1.956   3.538   1.535 -0.4588 -0.1837 -0.8228
 1460SOL    HW1 4515   1.997   3.458   1.569 -0.9028 -1.0476 -2.2239
 1460SOL    HW2 4516   1.980   3.605   1.598  0.5218 -1.2769  0.0351
 1461SOL     OW 4517   1.660   1.358   0.822 -0.7875  0.3809 -0.0309
 1461SOL    HW1 4518   1.606   1.426   0.861 -0.6545  0.2910  0.3129
 1461SOL    HW2 4519   1.729   1.342   0.886 -0.1946  0.6824 -0.5797
 1462SOL     OW 4520   3.017   0.827   0.353  1.0342 -0.7131  0.0733
 1462SOL    HW1 4521   3.058   0.820   0.267  2.2815 -0.9688  0.6570
 1462SOL    HW2 4522   3.026   0.920   0.376 -0.0090 -0.4836 -0.3877
 1463SOL     OW 4523   0.787   1.323   0.496  0.6849 -0.3194  0.1908
 1463SOL    HW1 4524   0.744   1.254   0.547  1.6948  0.8144  2.7140
 1463SOL    HW2 4525   0.724   1.344   0.427  0.4857 -3.9581 -0.9569
 1464SOL     OW 4526   1.600   0.599   3.170  0.3253 -1.0246 -0.3589
 1464SOL    HW1 4527   1.515   0.642   3.179  0.9214  0.3991 -1.2006
 1464SOL    HW2 4528   1.659   0.651   3.224  1.0806 -0.6997 -1.4630
 1465SOL     OW 4529   2.935   2.550   0.852 -0.5492 -0.0120  1.0762
 1465SOL    HW1 4530   2.914   2.553   0.946 -0.3840  0.7107  1.0971
 1465SOL    HW2 4531   2.877   2.615   0.812 -2.4463 -2.0655  0.2706
 1466SOL     OW 4532   3.031   0.845   0.684  0.1019 -0.3880  0.6541
 1466SOL    HW1 4533   2.972   0.858   0.610  0.4619  0.0132  0.4313
 1466SOL    HW2 4534   3.009   0.758   0.718  1.3621 -1.5336 -1.2491
 1467SOL     OW 4535   1.665   3.053   1.113  0.0380 -0.4832 -0.8381
 1467SOL    HW1 4536   1.714   3.093   1.184  0.7338  0.3797 -1.7702
 1467SOL    HW2 4537   1.591   3.010   1.155  1.1644 -1.1560  0.5285
 1468SOL     OW 4538   3.537   2.609   2.420  0.5939  0.3807  0.8398
 1468SOL    HW1 4539   3.570   2.677   2.362  0.3991 -0.0102  0.2683
 1468SOL    HW2 4540   3.594   2.534   2.405  1.0757  0.5402  1.7836
 1469SOL     OW 4541   2.461   3.928   0.413  0.6386 -0.2445  0.1672
 1469SOL    HW1 4542   2.385   3.870   0.416 -0.4853  0.7689 -3.6530
 1469SOL    HW2 4543   2.534   3.871   0.391 -0.1411 -0.5228 -1.8529
 1470SOL     OW 4544   0.557   0.613   0.944  0.7274 -0.9088 -0.2285
 1470SOL    HW1 4545   0.576   0.527   0.906  0.7922 -1.0849  0.1997
 1470SOL    HW2 4546   0.604   0.613   1.027  0.8639 -0.3917 -0.3042
 1471SOL     OW 4547   2.447   3.771   1.328 -1.0791  0.2394 -0.2291
 1471SOL    HW1 4548   2.444   3.786   1.233 -0.7413 -0.2105 -0.3161
 1471SOL    HW2 4549   2.533   3.731   1.343  0.3604  3.3980  0.7280
 1472SOL     OW 4550   3.077   2.563   2.817 -0.4608  0.5938 -0.7991
 1472SOL    HW1 4551   2.988   2.528   2.822 -0.1802 -0.1637 -0.8216
 1472SOL    HW2 4552   3.132   2.491   2.849  0.2063  0.7434 -1.5634
 1473SOL     OW 4553   3.663   3.077   2.407 -0.2095 -0.0331  0.0672
 1473SOL    HW1 4554   3.695   3.043   2.491 -0.1678  2.2534  1.0647
 1473SOL    HW2 4555   3.568   3.080   2.418 -0.1027  2.2264  0.9380
 1474SOL     OW 4556   0.095   1.823   2.692  0.1961 -0.0261  0.3705
 1474SOL    HW1 4557   0.007   1.858   2.679  0.2473  0.0047  0.1036
 1474SOL    HW2 4558   0.145   1.896   2.725 -0.3508 -0.5304  2.4710
 1475SOL     OW 4559   1.092   0.877   2.738  0.2713  1.0771  0.2339
 1475SOL    HW1 4560   1.080   0.786   2.765  0.6786  1.0581  0.3525
 1475SOL    HW2 4561   1.165   0.908   2.791 -0.2388  1.6455  0.6084
 1476SOL     OW 4562   0.486   3.546   3.893  0.5448 -0.0260 -0.2823
 1476SOL    HW1 4563   0.445   3.632   3.908  0.3933 -0.1935  0.3210
 1476SOL    HW2 4564   0.571   3.566   3.855  0.6672  0.4140  0.2048
 1477SOL     OW 4565   2.560   1.754   0.392 -0.1276 -0.2804 -0.1184
 1477SOL    HW1 4566   2.504   1.684   0.426 -0.1536 -0.9637 -1.4935
 1477SOL    HW2 4567   2.500   1.815   0.350  0.0762 -0.7027 -1.0581
 1478SOL     OW 4568   3.811   2.713   2.869  0.0805 -0.0007  0.4244
 1478SOL    HW1 4569   3.760   2.730   2.789  1.3573  0.0375 -0.4156
 1478SOL    HW2 4570   3.771   2.635   2.906 -0.2208 -0.3296 -0.5430
 1479SOL     OW 4571   0.526   2.050   3.541 -0.0841 -0.5135  0.5112
 1479SOL    HW1 4572   0.512   2.144   3.544 -1.4416 -0.5890 -1.6772
 1479SOL    HW2 4573   0.586   2.037   3.468 -1.0011 -1.4276 -0.1024
 1480SOL     OW 4574   3.062   1.158   0.676  0.4907  0.6132  0.0051
 1480SOL    HW1 4575   3.103   1.203   0.749 -3.0098  0.5293  2.2787
 1480SOL    HW2 4576   3.046   1.069   0.708  0.5596 -0.0039 -1.5810
 1481SOL     OW 4577   0.556   3.905   3.716  0.0813 -0.2580  0.0686
 1481SOL    HW1 4578   0.539   3.994   3.687 -0.6233 -0.2055  0.6226
 1481SOL    HW2 4579   0.509   3.896   3.799  2.8173 -0.0629  1.7996
 1482SOL     OW 4580   1.295   0.741   1.327 -0.0433  0.1283  0.2532
 1482SOL    HW1 4581   1.222   0.708   1.379 -0.2250  1.1794  0.6815
 1482SOL    HW2 4582   1.290   0.836   1.335 -1.3103  0.5096 -3.3305
 1483SOL     OW 4583   2.805   2.437   3.778 -0.3352  0.1727 -1.0018
 1483SOL    HW1 4584   2.726   2.449   3.725 -2.4618  0.0047  1.9235
 1483SOL    HW2 4585   2.804   2.344   3.801  1.0959  0.0404 -1.3733
 1484SOL     OW 4586   2.623   1.770   2.061  0.5943 -0.8303  0.4035
 1484SOL    HW1 4587   2.694   1.827   2.034 -0.4987  0.1716 -0.4956
 1484SOL    HW2 4588   2.547   1.828   2.067 -0.4098 -2.0635  0.1028
 1485SOL     OW 4589   0.141   3.565   0.373 -0.1557  0.3547  0.1194
 1485SOL    HW1 4590   0.216   3.542   0.427 -0.9029 -1.8338  0.3261
 1485SOL    HW2 4591   0.113   3.483   0.334 -2.2941  1.1364 -0.1520
 1486SOL     OW 4592   0.059   3.968   1.822  0.3767  0.6778  0.2413
 1486SOL    HW1 4593  -0.023   3.934   1.786  1.5115 -1.9972 -0.0426
 1486SOL    HW2 4594   0.056   3.945   1.915  1.4295 -0.9468 -0.0782
 1487SOL     OW 4595   0.224   3.811   2.421 -0.8297  0.2593  0.3344
 1487SOL    HW1 4596   0.242   3.861   2.501 -0.0494  0.7871 -0.1703
 1487SOL    HW2 4597   0.305   3.764   2.403  0.7564  3.7090 -2.7103
 1488SOL     OW 4598   0.996   1.662   3.548 -0.2597  0.3873  0.4745
 1488SOL    HW1 4599   0.941   1.595   3.508  0.6395  0.0189 -0.1898
 1488SOL    HW2 4600   1.025   1.716   3.475 -0.9810  1.5205  1.0099
 1489SOL     OW 4601   2.876   3.945   0.813  0.0699  0.4462 -0.2786
 1489SOL    HW1 4602   2.903   3.952   0.904  0.4608  2.1447 -0.4852
 1489SOL    HW2 4603   2.780   3.945   0.816  0.0453  2.0441  0.0971
 1490SOL     OW 4604   0.324   2.548   3.357 -0.5584 -0.4042  0.5535
 1490SOL    HW1 4605   0.369   2.632   3.350 -0.0678 -0.5777  1.4666
 1490SOL    HW2 4606   0.245   2.558   3.303 -0.0784  0.3420 -0.0290
 1491SOL     OW 4607   1.629   2.778   0.888  1.6226  0.0898  0.1362
 1491SOL    HW1 4608   1.681   2.759   0.967  1.1572 -2.0203  0.0069
 1491SOL    HW2 4609   1.684   2.749   0.816  0.9740 -0.5638 -0.1109
 1492SOL     OW 4610   0.376   0.395   0.518 -0.1304  0.2294 -0.4960
 1492SOL    HW1 4611   0.464   0.361   0.536 -0.9396 -0.8516  1.7630
 1492SOL    HW2 4612   0.379   0.419   0.425  2.2216 -0.7413 -0.7556
 1493SOL     OW 4613   3.298   0.959   2.410  0.5121  0.4838 -0.1083
 1493SOL    HW1 4614   3.326   1.003   2.330  1.4231  0.1325 -0.0055
 1493SOL    HW2 4615   3.333   0.870   2.402 -0.0128  0.2295  0.3531
 1494SOL     OW 4616   1.311   0.244   3.712 -0.1384  0.1028  0.0787
 1494SOL    HW1 4617   1.377   0.184   3.745 -1.3758 -0.6687  1.2619
 1494SOL    HW2 4618   1.300   0.220   3.620 -1.4977 -2.4072  0.8173
 1495SOL     OW 4619   3.949   2.787   0.959  0.6586 -0.6999  0.6586
 1495SOL    HW1 4620   3.964   2.779   0.865  0.6678 -1.9859  0.7525
 1495SOL    HW2 4621   3.855   2.767   0.970  1.0697 -2.6374  1.1036
 1496SOL     OW 4622   2.976   0.861   2.563 -0.2524  0.0156 -0.2303
 1496SOL    HW1 4623   2.931   0.944   2.578 -2.4655 -1.5536  2.6531
 1496SOL    HW2 4624   3.038   0.853   2.635 -1.8023 -1.8633  0.9812
 1497SOL     OW 4625   2.120   2.733   1.418  0.2873  0.6002  0.7075
 1497SOL    HW1 4626   2.122   2.734   1.322 -2.4404  0.3038  0.5526
 1497SOL    HW2 4627   2.149   2.820   1.444  2.1925  0.3120 -0.2973
 1498SOL     OW 4628   0.561   0.872   0.863  0.4959 -0.1137 -0.5559
 1498SOL    HW1 4629   0.629   0.882   0.930 -0.3940 -0.4179  0.4357
 1498SOL    HW2 4630   0.539   0.779   0.864  0.2953 -0.0771 -1.0980
 1499SOL     OW 4631   2.585   2.510   0.782  0.3944 -0.1707 -0.5940
 1499SOL    HW1 4632   2.626   2.572   0.722 -0.8830  1.1080 -0.1983
 1499SOL    HW2 4633   2.630   2.524   0.866 -1.5254  2.0537  0.1386
 1500SOL     OW 4634   3.162   3.584   0.360 -0.1114 -0.1003  0.4398
 1500SOL    HW1 4635   3.255   3.592   0.343  0.0318 -0.9548  0.7491
 1500SOL    HW2 4636   3.156   3.571   0.455 -0.5535  0.0860  0.4402
 1501SOL     OW 4637   3.176   2.904   0.162  0.4869 -0.1021  0.8447
 1501SOL    HW1 4638   3.093   2.865   0.190 -0.0779  0.8404  0.5674
 1501SOL    HW2 4639   3.185   2.877   0.071  0.0139  0.5107  0.6033
 1502SOL     OW 4640   3.239   1.534   2.052  0.1611 -0.1589  0.4297
 1502SOL    HW1 4641   3.264   1.604   1.992 -0.8197  0.6691  0.9672
 1502SOL    HW2 4642   3.168   1.571   2.105 -2.7612 -2.5187 -1.4531
 1503SOL     OW 4643   1.082   1.968   3.727  0.3522 -0.0066 -0.4361
 1503SOL    HW1 4644   0.994   1.994   3.752  0.7384  0.1946  0.8102
 1503SOL    HW2 4645   1.139   2.015   3.789  1.2852 -0.6348 -0.7973
 1504SOL     OW 4646   0.269   1.934   3.151  0.6040  0.0040  0.4328
 1504SOL    HW1 4647   0.331   1.948   3.080  0.0738  0.3448  0.0277
 1504SOL    HW2 4648   0.273   1.839   3.168  0.2847 -0.1826 -0.4834
 1505SOL     OW 4649   2.534   1.586   1.589  0.4255  0.0425 -0.3522
 1505SOL    HW1 4650   2.575   1.581   1.675  0.8469 -2.1102 -0.6383
 1505SOL    HW2 4651   2.446   1.552   1.602 -0.2534  1.6986 -0.3833
 1506SOL     OW 4652   2.571   3.111   0.206 -0.1511 -0.4025 -0.2610
 1506SOL    HW1 4653   2.601   3.201   0.204 -0.2476 -0.2197  2.3741
 1506SOL    HW2 4654   2.552   3.089   0.115  3.0715  1.0894 -1.4520
 1507SOL     OW 4655   2.125   2.314   3.383 -0.5686 -0.2193  0.1795
 1507SOL    HW1 4656   2.094   2.343   3.297 -0.7094  1.9856  0.8945
 1507SOL    HW2 4657   2.218   2.334   3.382 -0.0058 -2.6036 -0.3313
 1508SOL     OW 4658   2.139   0.257   0.967  0.7895 -0.3994 -0.3508
 1508SOL    HW1 4659   2.053   0.239   0.931  1.5307 -1.2089 -1.8184
 1508SOL    HW2 4660   2.182   0.171   0.972  0.6408 -0.4140  2.8585
 1509SOL     OW 4661   2.265   1.780   2.528  0.6524  0.2211 -0.2046
 1509SOL    HW1 4662   2.285   1.867   2.562  0.4061  0.6811 -1.2098
 1509SOL    HW2 4663   2.237   1.795   2.438 -1.7897 -0.6219  0.3200
 1510SOL     OW 4664   3.187   1.634   1.445  0.4236 -0.4605  0.5215
 1510SOL    HW1 4665   3.139   1.568   1.495 -0.4471  1.0086  1.7010
 1510SOL    HW2 4666   3.218   1.696   1.511  0.4225  0.8196 -0.6346
 1511SOL     OW 4667   1.912   3.197   1.271  0.3468  0.1941  0.1425
 1511SOL    HW1 4668   2.007   3.201   1.275  0.4287  0.5725 -1.3564
 1511SOL    HW2 4669   1.888   3.118   1.319  1.3032  0.8140  1.6972
 1512SOL     OW 4670   0.427   1.905   2.219 -0.3682  0.4886 -0.0299
 1512SOL    HW1 4671   0.395   1.906   2.309  1.2952 -2.2365  0.6891
 1512SOL    HW2 4672   0.390   1.825   2.181  2.0488 -0.5073 -0.4721
 1513SOL     OW 4673   0.397   2.395   0.604 -0.4973  0.0218  0.0029
 1513SOL    HW1 4674   0.463   2.325   0.605  0.4098  0.7510 -1.8898
 1513SOL    HW2 4675   0.448   2.474   0.585 -1.8111  0.7552 -0.5676
 1514SOL     OW 4676   3.056   2.743   2.438 -0.0063 -0.1364 -0.9271
 1514SOL    HW1 4677   3.105   2.825   2.427 -2.4337  1.4981 -0.3866
 1514SOL    HW2 4678   3.066   2.722   2.531  2.6843 -1.9777 -1.5006
 1515SOL     OW 4679   0.355   1.727   1.187 -0.5866 -0.5573 -0.0749
 1515SOL    HW1 4680   0.355   1.777   1.268  0.0774 -0.2325 -0.2608
 1515SOL    HW2 4681   0.438   1.751   1.145 -1.0230 -0.5453 -0.9547
 1516SOL     OW 4682   1.727   3.316   0.744  0.0918 -0.3293 -0.2849
 1516SOL    HW1 4683   1.664   3.341   0.677 -1.3038  1.6197  1.6078
 1516SOL    HW2 4684   1.751   3.398   0.787  1.2421 -1.4372  1.3345
 1517SOL     OW 4685   2.575   1.775   2.441 -0.0886 -0.1803 -0.3089
 1517SOL    HW1 4686   2.485   1.779   2.472  0.4987  0.6278  1.4431
 1517SOL    HW2 4687   2.585   1.685   2.409 -1.8776  0.1096 -1.8969
 1518SOL     OW 4688   2.729   3.478   1.437  0.3644 -0.4716 -0.1593
 1518SOL    HW1 4689   2.783   3.504   1.363 -0.7271 -1.1887 -1.2366
 1518SOL    HW2 4690   2.735   3.552   1.498  0.3119  0.6595 -1.4941
 1519SOL     OW 4691   3.668   3.340   2.876  0.3815 -0.1521  0.1926
 1519SOL    HW1 4692   3.704   3.373   2.793  1.0352 -0.0804  0.4955
 1519SOL    HW2 4693   3.628   3.257   2.853  2.7075 -1.3649  0.2050
 1520SOL     OW 4694   3.313   2.414   0.883 -0.4482 -0.0088  0.1271
 1520SOL    HW1 4695   3.301   2.497   0.837 -2.6311 -0.3932 -0.0943
 1520SOL    HW2 4696   3.237   2.361   0.858  0.5311 -1.8355  0.7992
 1521SOL     OW 4697   1.151   1.522   1.696  0.1187 -0.1545  0.1435
 1521SOL    HW1 4698   1.195   1.438   1.699 -0.2580 -0.4062 -0.8554
 1521SOL    HW2 4699   1.101   1.527   1.777  1.2845 -0.2378  0.8879
 1522SOL     OW 4700   0.674   1.289   1.319  0.4199 -0.0399 -0.1713
 1522SOL    HW1 4701   0.602   1.340   1.357  0.2366 -0.9093  0.6702
 1522SOL    HW2 4702   0.706   1.344   1.247 -0.1693  0.9883  0.3237
 1523SOL     OW 4703   2.275   1.182   2.539  0.0154  0.1129  0.1471
 1523SOL    HW1 4704   2.339   1.253   2.542 -0.3559  0.5314 -1.1181
 1523SOL    HW2 4705   2.304   1.121   2.606  1.4326  0.5586 -0.0271
 1524SOL     OW 4706   0.445   0.502   1.692  0.0116  0.1313  0.3924
 1524SOL    HW1 4707   0.472   0.575   1.749 -0.4278 -1.0729  2.2136
 1524SOL    HW2 4708   0.517   0.494   1.629  1.2253  0.5977  1.6523
 1525SOL     OW 4709   0.384   3.886   3.451  0.1878 -0.0091  0.2479
 1525SOL    HW1 4710   0.429   3.828   3.512 -0.8681 -0.5356  0.5648
 1525SOL    HW2 4711   0.367   3.831   3.374  0.0499  0.1663  0.1526
 1526SOL     OW 4712   2.947   3.686   0.876 -0.0689 -0.1614  0.6748
 1526SOL    HW1 4713   2.926   3.777   0.853 -1.1014 -0.0967  1.7732
 1526SOL    HW2 4714   2.997   3.694   0.957  0.5589 -0.5507  0.3357
 1527SOL     OW 4715   1.496   3.885   0.831 -0.3823 -0.3670  0.3133
 1527SOL    HW1 4716   1.498   3.795   0.864 -0.6140  0.0942  1.6464
 1527SOL    HW2 4717   1.434   3.882   0.758 -0.1245 -1.3550  0.1133
 1528SOL     OW 4718   2.388   0.682   1.765  0.1648 -0.2890  0.2536
 1528SOL    HW1 4719   2.388   0.722   1.852  0.9449 -2.2457  1.2072
 1528SOL    HW2 4720   2.339   0.743   1.711  0.3372  1.3742  1.8737
 1529SOL     OW 4721   2.002   1.129   1.928 -0.4118 -0.8649  0.4811
 1529SOL    HW1 4722   1.962   1.203   1.882 -1.3571 -1.6419  0.0209
 1529SOL    HW2 4723   2.021   1.065   1.859  0.7150 -0.9252  0.8284
 1530SOL     OW 4724   1.557   0.534   3.604  0.0182 -0.8197 -0.5154
 1530SOL    HW1 4725   1.653   0.535   3.604  0.3262 -4.3963 -3.5937
 1530SOL    HW2 4726   1.534   0.492   3.687  0.8970  1.5365  1.0188
 1531SOL     OW 4727   1.929   3.346   2.504  0.4035  0.0898  0.8356
 1531SOL    HW1 4728   1.967   3.308   2.424  2.9380  2.7644  0.5993
 1531SOL    HW2 4729   1.909   3.436   2.481 -1.1493  0.2480  2.5935
 1532SOL     OW 4730   2.866   1.277   1.722  0.3861 -0.2664  0.4576
 1532SOL    HW1 4731   2.880   1.261   1.815 -0.4219  1.8829  1.0118
 1532SOL    HW2 4732   2.820   1.360   1.718  0.8734 -0.0153 -1.9083
 1533SOL     OW 4733   2.033   0.883   3.318 -0.1059  0.1393  0.1069
 1533SOL    HW1 4734   2.120   0.843   3.312  0.5233  1.3788  0.5214
 1533SOL    HW2 4735   2.049   0.977   3.305 -1.2595  0.4987  1.0676
 1534SOL     OW 4736   3.306   0.170   3.820  0.1104  0.1086  0.6627
 1534SOL    HW1 4737   3.259   0.239   3.867  0.7318  1.6197 -0.7967
 1534SOL    HW2 4738   3.255   0.091   3.835 -0.4993  0.8282  2.5969
 1535SOL     OW 4739   1.155   0.408   2.004  0.4000 -0.4726  0.4461
 1535SOL    HW1 4740   1.149   0.460   2.084 -0.8095  1.9614 -1.1043
 1535SOL    HW2 4741   1.227   0.448   1.955 -0.8601  0.1741 -0.9811
 1536SOL     OW 4742   2.769   0.211   1.513 -0.0304 -0.6166  0.1654
 1536SOL    HW1 4743   2.705   0.250   1.454  0.6447  3.2153  1.7057
 1536SOL    HW2 4744   2.854   0.235   1.476  0.4160 -0.2566  1.3785
 1537SOL     OW 4745   3.789  -0.002   1.348 -0.2925 -0.2699 -0.0835
 1537SOL    HW1 4746   3.727   0.041   1.407 -0.2421 -1.0162  0.5457
 1537SOL    HW2 4747   3.874   0.034   1.372 -0.5847  1.8053 -1.9039
 1538SOL     OW 4748   0.049   2.079   2.780  0.3466  0.2836  0.0452
 1538SOL    HW1 4749  -0.035   2.099   2.739  0.0770 -0.7024  0.0938
 1538SOL    HW2 4750   0.077   2.161   2.820 -1.4581  0.1901  1.5829
 1539SOL     OW 4751   3.551   2.447   1.321 -0.0972  0.7534 -0.9055
 1539SOL    HW1 4752   3.515   2.377   1.375  0.0227  2.0309  0.9368
 1539SOL    HW2 4753   3.512   2.434   1.235  0.1766 -1.7419 -0.7330
 1540SOL     OW 4754   1.274   1.475   3.841  0.6032  0.1369  0.2957
 1540SOL    HW1 4755   1.262   1.557   3.793  1.3031  0.3544  0.4793
 1540SOL    HW2 4756   1.185   1.442   3.855  0.3875  0.0821 -1.1095
 1541SOL     OW 4757   2.855   2.150   0.687  0.5451 -0.2659 -0.1776
 1541SOL    HW1 4758   2.821   2.179   0.771  0.7829 -2.7426  0.8434
 1541SOL    HW2 4759   2.950   2.154   0.697  0.6534  2.0570 -1.3660
 1542SOL     OW 4760   1.105   1.790   1.599  0.0511 -0.0107  0.0490
 1542SOL    HW1 4761   1.130   1.698   1.590  1.3221  0.4394 -1.4545
 1542SOL    HW2 4762   1.188   1.837   1.611 -0.5686  0.9696  0.6845
 1543SOL     OW 4763   0.074   0.705   2.387 -0.1253 -0.2606 -0.4023
 1543SOL    HW1 4764   0.165   0.716   2.415 -0.2706 -2.0690  0.9737
 1543SOL    HW2 4765   0.037   0.794   2.388  1.4063  0.3971 -0.2021
 1544SOL     OW 4766   0.607   0.542   2.045  0.1350 -0.0733  0.5695
 1544SOL    HW1 4767   0.583   0.595   1.969  0.8670 -2.4882 -1.4769
 1544SOL    HW2 4768   0.526   0.495   2.068  0.4327 -0.9466 -0.1227
 1545SOL     OW 4769   3.860   2.970   0.661 -0.0641  0.4166 -0.0425
 1545SOL    HW1 4770   3.774   3.011   0.664  0.0829  1.0354 -2.3478
 1545SOL    HW2 4771   3.921   3.042   0.645  0.6962 -0.2165 -0.0620
 1546SOL     OW 4772   0.058   0.978   3.927 -0.1736 -0.4912 -0.4344
 1546SOL    HW1 4773   0.058   1.070   3.898 -0.9175 -0.0586  0.8520
 1546SOL    HW2 4774   0.113   0.933   3.863 -0.9082  0.5931 -1.8912
 1547SOL     OW 4775   2.756   3.891   1.399  0.1516  0.1931  0.9217
 1547SOL    HW1 4776   2.724   3.916   1.485  0.7350 -2.6122  2.0915
 1547SOL    HW2 4777   2.842   3.852   1.416  0.2925 -0.4073 -0.9121
 1548SOL     OW 4778   0.885   3.577   1.603  0.7337  0.4808  0.1472
 1548SOL    HW1 4779   0.797   3.572   1.566  0.1141 -0.0993  1.6304
 1548SOL    HW2 4780   0.888   3.506   1.667  2.2442  0.5762  0.2052
 1549SOL     OW 4781   2.465   0.419   1.646  0.3310  0.2758  0.4995
 1549SOL    HW1 4782   2.440   0.506   1.677  0.4798  0.2026  0.8359
 1549SOL    HW2 4783   2.390   0.363   1.665 -0.2232  0.5571 -0.7707
 1550SOL     OW 4784   3.959   0.910   1.920  0.2496  0.2357  0.3491
 1550SOL    HW1 4785   3.967   0.870   2.007  0.9947 -0.5719 -0.0815
 1550SOL    HW2 4786   3.893   0.857   1.875  1.8333 -1.0952 -0.5129
 1551SOL     OW 4787   0.357   3.715   3.094  0.2064 -0.0303 -0.1523
 1551SOL    HW1 4788   0.268   3.702   3.060  0.4312  0.6329 -1.0484
 1551SOL    HW2 4789   0.412   3.715   3.016  0.5372  3.4416 -0.0766
 1552SOL     OW 4790   1.641   2.328   3.838 -0.7781 -0.4535 -0.4655
 1552SOL    HW1 4791   1.668   2.387   3.768 -2.0704  1.0259  0.2333
 1552SOL    HW2 4792   1.723   2.302   3.881 -0.0417 -0.7182 -1.9661
 1553SOL     OW 4793   0.612   3.462   3.306 -0.1323 -0.1316  0.0638
 1553SOL    HW1 4794   0.530   3.466   3.256 -0.8016  0.5769  1.1855
 1553SOL    HW2 4795   0.680   3.480   3.241 -0.7981 -1.3020 -1.0057
 1554SOL     OW 4796   2.977   3.684   1.428  0.3686 -0.5311  0.3355
 1554SOL    HW1 4797   3.017   3.764   1.463  0.4349  0.0902 -1.0701
 1554SOL    HW2 4798   3.046   3.618   1.432 -0.2002 -1.0507  3.1305
 1555SOL     OW 4799   1.351   2.326   2.160  0.5030 -0.0887 -0.4114
 1555SOL    HW1 4800   1.306   2.332   2.244 -2.1029 -3.8435 -1.2753
 1555SOL    HW2 4801   1.291   2.368   2.098  1.0112  0.0546 -0.8108
 1556SOL     OW 4802   2.833   2.717   3.649  0.1952 -0.0714 -0.0433
 1556SOL    HW1 4803   2.910   2.687   3.696  1.2116  1.8331 -0.3963
 1556SOL    HW2 4804   2.822   2.809   3.676 -4.1770 -1.1617  2.8797
 1557SOL     OW 4805   0.996   3.459   0.825 -0.0871 -0.3374  0.4218
 1557SOL    HW1 4806   0.917   3.506   0.850 -0.2778 -0.2447 -0.3272
 1557SOL    HW2 4807   1.047   3.522   0.775  0.3548 -0.4680  0.7023
 1558SOL     OW 4808   3.718   3.349   1.457  0.5362  0.3239 -0.3064
 1558SOL    HW1 4809   3.763   3.386   1.381  1.2617  0.0802 -0.0105
 1558SOL    HW2 4810   3.726   3.254   1.446 -0.2625  0.2714 -0.4507
 1559SOL     OW 4811   2.140   2.735   0.085  0.1691 -0.3505  0.5314
 1559SOL    HW1 4812   2.124   2.829   0.095  0.5615 -0.3634  1.3549
 1559SOL    HW2 4813   2.117   2.716  -0.006 -1.1466  0.2973  0.7045
 1560SOL     OW 4814   1.830   2.337   1.534  0.1266 -0.0972 -0.1414
 1560SOL    HW1 4815   1.775   2.267   1.570  0.1477  0.2570  0.6059
 1560SOL    HW2 4816   1.861   2.385   1.611 -0.0814  0.8871 -0.6516
 1561SOL     OW 4817   2.679   1.427   3.364 -0.0186  0.5400 -0.6614
 1561SOL    HW1 4818   2.683   1.402   3.456  1.7548 -1.7221 -1.2475
 1561SOL    HW2 4819   2.690   1.523   3.365  2.7680  0.3531  1.4170
 1562SOL     OW 4820   0.691   0.891   2.987 -0.6217 -0.1481 -0.3857
 1562SOL    HW1 4821   0.754   0.855   3.050  0.1107 -0.0395 -1.0308
 1562SOL    HW2 4822   0.619   0.828   2.987  0.1822 -1.1055 -0.7407
 1563SOL     OW 4823   0.829   1.120   0.985  0.2648  0.6485 -0.5409
 1563SOL    HW1 4824   0.762   1.189   0.990  1.1407  1.4050  2.2383
 1563SOL    HW2 4825   0.781   1.039   1.004 -0.1493  0.9406 -0.3187
 1564SOL     OW 4826   3.857   1.188   0.681 -0.4420  0.0402 -0.6605
 1564SOL    HW1 4827   3.786   1.198   0.617 -0.6655 -0.7715 -0.5505
 1564SOL    HW2 4828   3.931   1.234   0.642 -0.6560 -0.2073 -1.3803
 1565SOL     OW 4829   1.368   3.433   3.271 -0.5411  0.3064  0.0119
 1565SOL    HW1 4830   1.335   3.482   3.346 -1.8551  0.1341 -0.4240
 1565SOL    HW2 4831   1.300   3.444   3.204  1.3264  1.8740 -1.7813
 1566SOL     OW 4832   0.164   0.991   2.882  0.2526 -0.2606  0.5872
 1566SOL    HW1 4833   0.124   0.958   2.802  2.3132  1.8323 -1.4792
 1566SOL    HW2 4834   0.117   1.073   2.900 -0.2223 -0.7320  1.6138
 1567SOL     OW 4835   3.770   2.991   2.952 -0.0708  0.0542  0.3054
 1567SOL    HW1 4836   3.823   2.920   2.915 -1.4473 -1.1887  0.6294
 1567SOL    HW2 4837   3.820   3.021   3.028  1.0751  0.2351 -0.4890
 1568SOL     OW 4838   0.859   0.158   1.386  0.0976 -0.0917 -0.1004
 1568SOL    HW1 4839   0.914   0.171   1.463  1.5581  1.8928 -1.3717
 1568SOL    HW2 4840   0.828   0.068   1.392  0.7184 -0.1918  2.4210
 1569SOL     OW 4841   3.732   0.106   2.763  0.0877 -0.0816  0.2400
 1569SOL    HW1 4842   3.807   0.094   2.704  0.7099  1.4145  0.6770
 1569SOL    HW2 4843   3.706   0.198   2.750  0.4140  0.3834  2.4593
 1570SOL     OW 4844   0.512   2.981   2.305 -0.4073  0.0009 -0.0917
 1570SOL    HW1 4845   0.608   2.992   2.307 -0.1787 -0.9788  4.2074
 1570SOL    HW2 4846   0.479   3.070   2.317  0.0610  0.1198  0.3822
 1571SOL     OW 4847   2.872   2.767   2.248  0.0619 -0.4600  0.2947
 1571SOL    HW1 4848   2.843   2.838   2.305  1.0687  0.8632 -0.7660
 1571SOL    HW2 4849   2.942   2.723   2.298  1.0898  0.8219  0.0278
 1572SOL     OW 4850   3.183   0.644   2.835  0.2919  0.5489 -0.0474
 1572SOL    HW1 4851   3.220   0.599   2.760  0.3589 -0.6600  0.6866
 1572SOL    HW2 4852   3.259   0.675   2.885  0.2491  2.3636 -1.0294
 1573SOL     OW 4853   1.471   0.808   3.794  0.7412 -0.6094  0.6755
 1573SOL    HW1 4854   1.553   0.819   3.842  1.3759 -2.6121  0.1557
 1573SOL    HW2 4855   1.426   0.737   3.840  0.3017 -0.9718 -0.2962
 1574SOL     OW 4856   3.431   3.009   0.982 -0.3010  1.0967  0.2011
 1574SOL    HW1 4857   3.383   3.018   0.899 -0.4313  0.1934  0.1652
 1574SOL    HW2 4858   3.375   2.953   1.036  0.4727  0.4522  0.3501
 1575SOL     OW 4859   0.731   1.146   0.154 -0.1762 -0.4253  0.6761
 1575SOL    HW1 4860   0.775   1.091   0.219  0.7189  0.3384  0.7422
 1575SOL    HW2 4861   0.677   1.085   0.103  0.7395 -1.3512  0.7871
 1576SOL     OW 4862   1.592   0.739   1.949 -0.0248 -0.2196 -0.4362
 1576SOL    HW1 4863   1.686   0.726   1.937  0.5795 -2.4402  4.4524
 1576SOL    HW2 4864   1.559   0.654   1.978 -3.7816  0.3515 -2.3142
 1577SOL     OW 4865   0.266   3.061   0.804  0.7075  0.6571  0.3017
 1577SOL    HW1 4866   0.175   3.084   0.787 -0.0512 -1.4728  1.0536
 1577SOL    HW2 4867   0.293   3.120   0.874 -1.1720 -0.6300  2.2616
 1578SOL     OW 4868   1.254   2.390   2.401 -0.0388 -0.3260  0.0606
 1578SOL    HW1 4869   1.204   2.372   2.481  0.7025  0.2832  0.6828
 1578SOL    HW2 4870   1.345   2.397   2.431  0.0802  1.3611 -0.6011
 1579SOL     OW 4871   3.125   3.395   2.858  0.0057  0.3986 -0.0372
 1579SOL    HW1 4872   3.139   3.318   2.803  1.7500  0.2332  0.5796
 1579SOL    HW2 4873   3.037   3.426   2.835 -0.7076 -1.7327 -0.3349
 1580SOL     OW 4874   3.692   3.426   0.719  0.1334 -0.3385  0.1058
 1580SOL    HW1 4875   3.691   3.522   0.717 -1.4973 -0.3410 -1.5098
 1580SOL    HW2 4876   3.785   3.403   0.718  0.6533  1.1872  2.7153
 1581SOL     OW 4877   1.264   1.526   2.658  0.5668 -0.6636 -0.0241
 1581SOL    HW1 4878   1.184   1.536   2.710  1.0844 -0.0312  0.6695
 1581SOL    HW2 4879   1.285   1.615   2.630  1.3831 -0.7394  0.3348
 1582SOL     OW 4880   1.624   3.010   1.720  0.0813 -0.4566  0.2914
 1582SOL    HW1 4881   1.594   2.957   1.646  3.2517 -1.1586 -0.6365
 1582SOL    HW2 4882   1.690   3.068   1.682  0.3475  0.6032  2.2504
 1583SOL     OW 4883   0.128   2.613   2.925  0.3487 -0.1520  0.2425
 1583SOL    HW1 4884   0.132   2.686   2.987  0.0466  1.0829 -1.1122
 1583SOL    HW2 4885   0.036   2.610   2.898  0.6923  0.2111 -1.0752
 1584SOL     OW 4886   2.004   2.015   2.597  0.0594 -0.7479 -0.2292
 1584SOL    HW1 4887   1.932   2.045   2.540 -0.8894  0.4596  1.5163
 1584SOL    HW2 4888   1.979   1.926   2.622 -2.2211  0.4590  2.3025
 1585SOL     OW 4889   3.760   2.255   2.156  0.1878 -0.3470 -0.6504
 1585SOL    HW1 4890   3.722   2.297   2.078 -1.2859 -1.7862 -0.7597
 1585SOL    HW2 4891   3.853   2.248   2.136  0.2530  1.4873 -1.2308
 1586SOL     OW 4892   1.124   3.107   3.020  0.2175  0.3838 -0.1309
 1586SOL    HW1 4893   1.044   3.054   3.019 -0.0811  0.8322 -0.1953
 1586SOL    HW2 4894   1.122   3.156   2.938  0.3807  0.6620  0.0286
 1587SOL     OW 4895   3.763   1.928   3.476  0.2347 -0.2389 -0.2051
 1587SOL    HW1 4896   3.858   1.921   3.463  0.3425  1.3982 -0.4631
 1587SOL    HW2 4897   3.726   1.872   3.408  0.9999  0.4961 -1.2719
 1588SOL     OW 4898   2.360   2.954   0.327  0.3030  0.2006 -0.5703
 1588SOL    HW1 4899   2.295   3.023   0.320  1.4417  1.9213  3.0543
 1588SOL    HW2 4900   2.439   2.990   0.286  0.4327  0.3816 -0.1682
 1589SOL     OW 4901   3.360   2.859   3.565  0.3523  0.3032 -0.1353
 1589SOL    HW1 4902   3.447   2.831   3.592  0.7910  0.3198 -1.4280
 1589SOL    HW2 4903   3.301   2.817   3.626  1.2483 -0.0215  0.5271
 1590SOL     OW 4904   1.560   3.118   0.135  0.0262  0.2781  0.2697
 1590SOL    HW1 4905   1.533   3.188   0.194 -2.0830 -0.3998  0.1756
 1590SOL    HW2 4906   1.555   3.158   0.047 -3.5292 -0.5128 -0.0364
 1591SOL     OW 4907   0.500   1.503   3.709 -0.1470  0.1158 -0.4164
 1591SOL    HW1 4908   0.517   1.597   3.703  1.4213 -0.0336  0.8864
 1591SOL    HW2 4909   0.427   1.495   3.771  0.3050  0.4717  0.1792
 1592SOL     OW 4910   0.587   3.907   2.566 -0.2846  0.2064 -0.2543
 1592SOL    HW1 4911   0.676   3.930   2.592 -0.7474  0.6576  1.0074
 1592SOL    HW2 4912   0.569   3.964   2.491  0.1379  0.8382  0.1128
 1593SOL     OW 4913   2.890   0.804   1.605 -0.2748 -0.5668 -0.4706
 1593SOL    HW1 4914   2.956   0.852   1.556  0.5425  0.0297  1.1486
 1593SOL    HW2 4915   2.811   0.857   1.598 -1.1587 -2.0431 -3.7388
 1594SOL     OW 4916   0.310   3.698   0.846  0.0142  0.2509 -0.7067
 1594SOL    HW1 4917   0.372   3.714   0.917 -0.1879 -0.1672 -0.4345
 1594SOL    HW2 4918   0.327   3.768   0.783  0.4177  0.4309 -0.3988
 1595SOL     OW 4919  -0.008   2.088   1.644 -0.2322 -0.4188 -0.1691
 1595SOL    HW1 4920  -0.067   2.096   1.718 -0.7876  0.4178 -0.6786
 1595SOL    HW2 4921   0.077   2.115   1.677 -0.7872  1.5147 -0.1989
 1596SOL     OW 4922   0.767   3.881   0.998  0.1678 -0.0698 -0.1720
 1596SOL    HW1 4923   0.820   3.936   0.941  1.2769 -0.6024  0.3197
 1596SOL    HW2 4924   0.728   3.941   1.061 -1.2126  0.5513 -1.5542
 1597SOL     OW 4925   1.248   1.708   2.887 -0.7728  0.5756 -0.7581
 1597SOL    HW1 4926   1.262   1.795   2.925 -0.4282  0.6788 -1.1158
 1597SOL    HW2 4927   1.246   1.649   2.962  0.0764  0.7597 -0.5882
 1598SOL     OW 4928   0.365   2.919   1.668 -0.4009 -0.1658 -0.0917
 1598SOL    HW1 4929   0.354   3.007   1.632 -0.7320 -0.9441 -1.9627
 1598SOL    HW2 4930   0.386   2.934   1.761  1.3195  1.9268 -0.7397
 1599SOL     OW 4931   2.660   0.026   1.016  0.5935  0.2294 -0.0580
 1599SOL    HW1 4932   2.646   0.084   1.091  1.8813  2.8433 -1.6909
 1599SOL    HW2 4933   2.571   0.009   0.983  0.1567  1.1543  0.5733
 1600SOL     OW 4934   2.803   0.527   1.134 -0.0965 -0.2344 -0.2951
 1600SOL    HW1 4935   2.752   0.575   1.199 -0.5204 -1.1772  0.0796
 1600SOL    HW2 4936   2.741   0.467   1.094  0.7864 -1.7145  0.4668
 1601SOL     OW 4937   3.579   0.119   1.752 -0.5411  0.3330  0.5466
 1601SOL    HW1 4938   3.624   0.056   1.696 -0.3723  0.4245  0.5797
 1601SOL    HW2 4939   3.537   0.065   1.819 -1.5717  0.1385 -0.2260
 1602SOL     OW 4940   2.159   2.631   1.697 -0.0918 -0.1800 -0.9177
 1602SOL    HW1 4941   2.185   2.696   1.632 -0.3064 -0.3135 -1.1352
 1602SOL    HW2 4942   2.229   2.634   1.762 -0.5287  0.8998 -0.4706
 1603SOL     OW 4943   1.707   0.641   0.673 -0.3885 -0.3373  0.3040
 1603SOL    HW1 4944   1.791   0.606   0.643 -0.5627 -2.6037  2.2167
 1603SOL    HW2 4945   1.729   0.723   0.716  0.4296  0.5722 -1.7185
 1604SOL     OW 4946   3.003   2.635   3.912 -0.0297 -0.0744 -0.0998
 1604SOL    HW1 4947   2.947   2.688   3.969 -0.1957  0.6266 -0.9015
 1604SOL    HW2 4948   2.949   2.559   3.891 -0.8167  0.7223 -1.0816
 1605SOL     OW 4949   3.726   0.947   2.351 -0.0477 -0.6310 -0.1075
 1605SOL    HW1 4950   3.686   1.033   2.335 -0.1221 -0.6815 -0.2000
 1605SOL    HW2 4951   3.731   0.940   2.446  0.3369 -0.3527 -0.1063
 1606SOL     OW 4952   3.450   3.356   0.834  0.0958 -0.0190  0.0886
 1606SOL    HW1 4953   3.420   3.275   0.793  1.0873 -0.3070 -0.0852
 1606SOL    HW2 4954   3.538   3.370   0.799 -0.7983  2.2392 -1.4470
 1607SOL     OW 4955   3.762   2.982   3.669 -0.2415 -0.6386  0.4732
 1607SOL    HW1 4956   3.734   2.906   3.617  0.2790 -0.8316  0.4743
 1607SOL    HW2 4957   3.777   3.051   3.605  2.1149 -1.3743  0.1477
 1608SOL     OW 4958   0.052   3.702   3.251 -0.1165  0.2307  0.5192
 1608SOL    HW1 4959   0.082   3.664   3.169 -1.1776 -0.0880  0.2596
 1608SOL    HW2 4960  -0.013   3.767   3.226  1.1463  1.7443  1.0095
 1609SOL     OW 4961   3.756   2.654   1.817  0.3245  0.1324 -0.2618
 1609SOL    HW1 4962   3.666   2.683   1.832  0.9404  1.2606  1.4773
 1609SOL    HW2 4963   3.761   2.567   1.856  0.0673  0.1822 -0.1224
 1610SOL     OW 4964   0.318   1.871   3.546 -0.3459 -0.4530 -0.3081
 1610SOL    HW1 4965   0.404   1.913   3.546  0.0445 -0.8478  4.1139
 1610SOL    HW2 4966   0.337   1.778   3.533 -0.6176 -0.1989 -3.2792
 1611SOL     OW 4967   2.149   3.028   3.037 -0.5333  0.7356  0.2687
 1611SOL    HW1 4968   2.146   3.121   3.012 -2.1921  0.0953 -2.2419
 1611SOL    HW2 4969   2.061   2.996   3.020  0.3985 -1.6597 -0.3740
 1612SOL     OW 4970   0.773   0.398   2.244  0.7977 -0.1638 -0.3891
 1612SOL    HW1 4971   0.771   0.312   2.203 -1.5084  0.9309 -2.9264
 1612SOL    HW2 4972   0.747   0.459   2.174  3.0801  2.7462  1.0615
 1613SOL     OW 4973   1.975   1.163   1.090  0.7027 -0.0749 -0.1414
 1613SOL    HW1 4974   2.017   1.124   1.013  0.0722  0.1322 -0.5989
 1613SOL    HW2 4975   2.048   1.196   1.143  1.1712 -0.6820 -0.3903
 1614SOL     OW 4976   1.715   1.874   2.641  0.0827  0.2744  0.2971
 1614SOL    HW1 4977   1.775   1.809   2.603  1.3182  1.8485 -0.5455
 1614SOL    HW2 4978   1.661   1.824   2.702 -0.9203 -2.1228 -2.3196
 1615SOL     OW 4979   3.854   3.287   3.369 -0.1351 -0.0338 -0.2110
 1615SOL    HW1 4980   3.918   3.351   3.401 -0.2807  1.3407 -2.4119
 1615SOL    HW2 4981   3.781   3.293   3.430 -0.6359  2.8277 -0.9246
 1616SOL     OW 4982   0.613   3.689   2.712  0.4862  0.6182 -0.0655
 1616SOL    HW1 4983   0.619   3.753   2.783 -1.1196  0.9173 -0.1718
 1616SOL    HW2 4984   0.575   3.737   2.639 -2.0609 -0.7310  0.2669
 1617SOL     OW 4985   2.277   3.090   3.441 -0.2217  0.5442  0.5621
 1617SOL    HW1 4986   2.223   3.149   3.389 -2.5201 -1.2515  0.7695
 1617SOL    HW2 4987   2.216   3.026   3.476  1.7421 -0.2914  2.7267
 1618SOL     OW 4988   0.886   1.566   2.619 -0.3285  0.1295 -0.2927
 1618SOL    HW1 4989   0.937   1.617   2.556 -0.1854 -1.5237 -1.5908
 1618SOL    HW2 4990   0.949   1.540   2.687  0.5865 -1.6595 -1.7361
 1619SOL     OW 4991   0.558   3.632   0.382  0.3844 -0.0285  0.5085
 1619SOL    HW1 4992   0.617   3.693   0.338  0.2355  0.5492  1.0907
 1619SOL    HW2 4993   0.533   3.570   0.314  1.9299 -0.4943  0.3303
 1620SOL     OW 4994   3.645   0.918   1.278  0.9256  0.1521 -0.4255
 1620SOL    HW1 4995   3.664   0.828   1.301 -0.9965 -0.6810 -1.8395
 1620SOL    HW2 4996   3.697   0.935   1.199 -0.0693 -0.3852 -1.2323
 1621SOL     OW 4997   3.181   0.607   3.241 -0.2083 -0.0791 -1.0870
 1621SOL    HW1 4998   3.193   0.514   3.261 -0.7235 -0.2238 -1.4392
 1621SOL    HW2 4999   3.087   0.622   3.250  0.1779  1.1714  2.1943
 1622SOL     OW 5000   3.893   1.213   3.271 -0.3013  0.1940 -0.1366
 1622SOL    HW1 5001   3.989   1.216   3.268 -0.2773 -0.2215  0.0532
 1622SOL    HW2 5002   3.866   1.199   3.181 -0.0799 -1.7617  0.0478
 1623SOL     OW 5003   0.170   1.514   3.868  0.2744 -0.5213  0.7806
 1623SOL    HW1 5004   0.233   1.574   3.909 -0.3519 -0.2070  1.2941
 1623SOL    HW2 5005   0.141   1.457   3.939 -0.0144 -0.6738  0.5412
 1624SOL     OW 5006   3.157   2.002   2.836  0.5001 -0.5150  0.1911
 1624SOL    HW1 5007   3.169   2.074   2.774 -1.0579 -0.6994 -0.3692
 1624SOL    HW2 5008   3.078   2.025   2.885 -0.2429 -1.9624 -0.2429
 1625SOL     OW 5009   3.684   1.812   3.975 -0.5959 -0.4190 -0.1500
 1625SOL    HW1 5010   3.653   1.734   3.929  0.7551 -1.9917  1.4300
 1625SOL    HW2 5011   3.765   1.837   3.929  0.8635 -2.1093  1.3196
 1626SOL     OW 5012   3.149   2.087   2.452 -0.4052  0.1484 -0.7092
 1626SOL    HW1 5013   3.074   2.102   2.510  0.0467 -0.5730  0.0751
 1626SOL    HW2 5014   3.226   2.105   2.506  0.0354 -1.0872 -0.8989
 1627SOL     OW 5015   0.206   3.372   0.727 -0.1470  0.4339  0.1337
 1627SOL    HW1 5016   0.270   3.413   0.668 -1.1036 -1.9221 -2.8586
 1627SOL    HW2 5017   0.259   3.318   0.786  0.7598  0.9989 -0.1424
 1628SOL     OW 5018   0.505   0.730   3.171  0.2488 -0.1881 -0.5079
 1628SOL    HW1 5019   0.482   0.659   3.112 -0.4210 -0.9211  0.5918
 1628SOL    HW2 5020   0.590   0.705   3.209  0.6591  0.2616 -1.1052
 1629SOL     OW 5021   2.409   3.170   2.312 -0.1588  0.5698 -0.0279
 1629SOL    HW1 5022   2.486   3.190   2.258 -0.6665 -0.8575 -1.3540
 1629SOL    HW2 5023   2.398   3.247   2.367  2.6284  0.5517  0.7207
 1630SOL     OW 5024   1.443   0.280   0.711 -0.0018 -0.2940  0.1485
 1630SOL    HW1 5025   1.381   0.215   0.680  0.2954 -1.6140  2.1407
 1630SOL    HW2 5026   1.391   0.360   0.723 -0.2936  0.0446 -2.6875
 1631SOL     OW 5027   3.414   0.653   2.406  0.1155  0.3560  0.3020
 1631SOL    HW1 5028   3.370   0.604   2.337 -0.0351  0.1058  0.5743
 1631SOL    HW2 5029   3.504   0.663   2.375 -0.1933  1.1141 -0.3894
 1632SOL     OW 5030   1.647   1.500   0.318 -0.4250 -0.2893  0.0673
 1632SOL    HW1 5031   1.666   1.503   0.412  4.2147 -0.5146 -0.6087
 1632SOL    HW2 5032   1.617   1.588   0.297 -1.4556 -0.2025  1.7037
 1633SOL     OW 5033   3.348   0.010   2.584 -0.5193  1.0106  0.1505
 1633SOL    HW1 5034   3.384   0.001   2.673  0.1678  2.1891  0.0166
 1633SOL    HW2 5035   3.423  -0.004   2.527 -0.3872  2.7905 -0.1562
 1634SOL     OW 5036   3.865   1.849   3.783 -0.0954 -0.5749  0.8048
 1634SOL    HW1 5037   3.827   1.896   3.709 -1.1178  0.3598  1.8777
 1634SOL    HW2 5038   3.866   1.757   3.756  2.1319 -0.0251 -1.4261
 1635SOL     OW 5039   0.229   3.642   1.399 -0.6514  0.0680  0.4643
 1635SOL    HW1 5040   0.171   3.622   1.325 -0.3020  0.7094  0.0074
 1635SOL    HW2 5041   0.174   3.631   1.476 -1.8298  2.0412 -0.0164
 1636SOL     OW 5042   0.892   1.785   1.390  0.2317  0.2279 -0.2335
 1636SOL    HW1 5043   0.946   1.765   1.467  0.5884  0.1265 -0.5063
 1636SOL    HW2 5044   0.869   1.878   1.400 -0.3943  0.0096  0.4018
 1637SOL     OW 5045   2.690   2.927   2.408  0.4596  0.0353  0.2747
 1637SOL    HW1 5046   2.730   2.991   2.468  0.4322 -0.5093  0.8893
 1637SOL    HW2 5047   2.607   2.904   2.450  1.1651 -1.5661  0.8855
 1638SOL     OW 5048   0.443   1.942   2.952 -0.1175  0.1057  0.3806
 1638SOL    HW1 5049   0.468   2.033   2.940  1.1970  0.0718  2.4138
 1638SOL    HW2 5050   0.481   1.896   2.877  0.2357  1.0533 -0.0251
 1639SOL     OW 5051   3.605   2.500   2.157  0.0245 -0.1987  0.2138
 1639SOL    HW1 5052   3.654   2.581   2.143  1.7947 -1.5463 -2.4052
 1639SOL    HW2 5053   3.652   2.456   2.228  1.2454 -0.4224 -0.6994
 1640SOL     OW 5054   1.341   1.720   1.320  0.4042 -0.1355  0.0058
 1640SOL    HW1 5055   1.427   1.707   1.280  0.3571 -1.0147  0.1713
 1640SOL    HW2 5056   1.307   1.631   1.333 -0.2725  0.1861  0.4908
 1641SOL     OW 5057   0.865   2.081   3.846  0.5929  0.1892  0.4148
 1641SOL    HW1 5058   0.913   2.097   3.927  0.7066  0.2500  0.3352
 1641SOL    HW2 5059   0.777   2.055   3.875  0.4848  0.7024  0.5476
 1642SOL     OW 5060   1.907   2.491   0.651  0.0844  0.3128 -0.8914
 1642SOL    HW1 5061   1.817   2.505   0.620 -0.6536 -1.7654  0.1414
 1642SOL    HW2 5062   1.940   2.420   0.597  0.5481  0.0103 -0.2240
 1643SOL     OW 5063   1.417   0.066   1.286  0.4223  0.5184  0.1141
 1643SOL    HW1 5064   1.461   0.142   1.325 -1.0892  1.2620  0.4661
 1643SOL    HW2 5065   1.395   0.010   1.361  3.1738 -1.2871 -0.2709
 1644SOL     OW 5066   0.793   3.922   0.353  0.2358 -0.0832  0.1564
 1644SOL    HW1 5067   0.784   3.917   0.448  1.8178 -0.6233  0.3117
 1644SOL    HW2 5068   0.814   4.014   0.336  0.2315 -0.0422  0.3675
 1645SOL     OW 5069   0.607   3.260   2.924  0.1067 -0.5341 -1.1339
 1645SOL    HW1 5070   0.676   3.200   2.952 -0.6161 -0.7826  0.1695
 1645SOL    HW2 5071   0.532   3.238   2.979 -0.4483  0.9664 -1.2499
 1646SOL     OW 5072   3.832   3.354   0.484  0.9529  0.4296 -0.0130
 1646SOL    HW1 5073   3.748   3.399   0.488 -0.0014 -1.3423  2.1539
 1646SOL    HW2 5074   3.897   3.423   0.498 -0.2135  1.6375 -0.3756
 1647SOL     OW 5075   3.096   2.980   0.534 -0.1995  0.1437 -0.3576
 1647SOL    HW1 5076   3.168   3.013   0.481  1.4958 -2.8498 -0.1117
 1647SOL    HW2 5077   3.017   2.998   0.482  1.1851 -0.7406 -2.9003
 1648SOL     OW 5078   0.014   2.616   0.674 -0.0942  0.1971 -0.0793
 1648SOL    HW1 5079   0.057   2.546   0.626 -1.1528 -1.1317  0.8302
 1648SOL    HW2 5080   0.056   2.696   0.643  2.0765 -0.9123 -0.1884
 1649SOL     OW 5081   2.876   0.831   1.071 -0.6589  0.0365 -0.2520
 1649SOL    HW1 5082   2.836   0.752   1.035 -1.0309  0.3912 -0.6340
 1649SOL    HW2 5083   2.830   0.844   1.154  0.8976 -1.3474  0.8826
 1650SOL     OW 5084   3.306   0.536   2.635 -0.6162 -0.2895  0.0666
 1650SOL    HW1 5085   3.331   0.574   2.550 -0.9909 -0.4892 -0.1330
 1650SOL    HW2 5086   3.267   0.452   2.613  1.9137 -1.7252  0.5964
 1651SOL     OW 5087   1.968   1.735   1.920 -0.0928  0.3442 -0.6430
 1651SOL    HW1 5088   1.892   1.700   1.875  0.5898  0.3745 -1.8369
 1651SOL    HW2 5089   1.962   1.830   1.906 -0.8138  0.5674  0.8436
 1652SOL     OW 5090   3.041   3.274   3.157  0.0981  0.4593  0.4691
 1652SOL    HW1 5091   3.132   3.273   3.127  0.2141 -0.7313  0.8246
 1652SOL    HW2 5092   3.012   3.183   3.151 -1.0986  0.8302  0.2922
 1653SOL     OW 5093   1.185   0.530   1.134 -0.2911 -0.7080  0.6844
 1653SOL    HW1 5094   1.171   0.492   1.221 -1.0633  0.7569  1.2469
 1653SOL    HW2 5095   1.275   0.563   1.137  0.2365 -2.0570  0.3380
 1654SOL     OW 5096   3.113   2.447   0.231 -0.2485 -0.5785  0.0296
 1654SOL    HW1 5097   3.069   2.506   0.169 -1.2300 -1.4327 -0.1201
 1654SOL    HW2 5098   3.205   2.453   0.209 -0.3930  0.4404 -0.3781
 1655SOL     OW 5099   0.737   0.853   0.534 -0.1194 -0.9485 -0.1397
 1655SOL    HW1 5100   0.704   0.808   0.456  1.0026 -0.8551 -0.6954
 1655SOL    HW2 5101   0.773   0.783   0.588 -2.0304 -1.1768  0.9376
 1656SOL     OW 5102   1.645   3.776   2.591 -0.1859 -0.0726  0.1968
 1656SOL    HW1 5103   1.662   3.814   2.677 -0.8816  1.2679 -0.2273
 1656SOL    HW2 5104   1.697   3.695   2.589 -1.0558 -0.7585  2.3173
 1657SOL     OW 5105   3.266   3.277   2.466 -0.1953 -0.1889  0.0837
 1657SOL    HW1 5106   3.298   3.309   2.381 -0.6168  1.2359  0.4416
 1657SOL    HW2 5107   3.346   3.260   2.516  0.0594  0.9581  0.1005
 1658SOL     OW 5108   1.677   3.891   1.649 -0.2830  0.2497  0.3883
 1658SOL    HW1 5109   1.593   3.919   1.686 -0.3151  1.6444 -0.6630
 1658SOL    HW2 5110   1.741   3.906   1.718 -0.6844  0.5326  0.7015
 1659SOL     OW 5111   0.193   2.309   2.820 -0.4837 -0.5701  0.6157
 1659SOL    HW1 5112   0.173   2.398   2.790  2.6513  0.1649  0.4170
 1659SOL    HW2 5113   0.206   2.318   2.915 -0.7772 -0.9687  0.6976
 1660SOL     OW 5114   1.644   0.425   2.832  0.2786 -0.0270  0.6306
 1660SOL    HW1 5115   1.572   0.483   2.856  0.2772  0.6852 -0.9469
 1660SOL    HW2 5116   1.671   0.384   2.914 -0.7373  1.0491  1.5314
 1661SOL     OW 5117   2.751   2.243   0.894 -0.5946 -0.0556 -0.1542
 1661SOL    HW1 5118   2.665   2.261   0.931  0.1391  1.0266  1.1219
 1661SOL    HW2 5119   2.797   2.193   0.962  0.6215  1.5658  0.2792
 1662SOL     OW 5120   1.615   2.348   0.403  0.4560 -0.3273  0.2003
 1662SOL    HW1 5121   1.544   2.316   0.348  1.4737  0.3023 -1.5824
 1662SOL    HW2 5122   1.634   2.436   0.369  1.0611  0.1308  1.6486
 1663SOL     OW 5123   1.035   2.055   3.081  0.0975 -0.2066  0.5575
 1663SOL    HW1 5124   0.966   2.102   3.127 -1.2725 -0.6826 -0.9016
 1663SOL    HW2 5125   0.990   1.979   3.042  0.5961  1.2361 -3.3106
 1664SOL     OW 5126   2.822   1.868   0.390 -0.1750 -0.1549  0.0013
 1664SOL    HW1 5127   2.881   1.812   0.341  0.2979 -0.6890  1.1280
 1664SOL    HW2 5128   2.746   1.813   0.408  0.1164 -0.3215  0.7646
 1665SOL     OW 5129   2.935   3.471   3.689 -0.2373  0.3766 -0.3387
 1665SOL    HW1 5130   2.864   3.486   3.626  1.6357  4.8205 -1.8288
 1665SOL    HW2 5131   2.987   3.400   3.651 -2.5084 -1.3958 -0.3568
 1666SOL     OW 5132   0.978   0.786   0.857 -0.1622  0.4784  0.4398
 1666SOL    HW1 5133   0.927   0.705   0.851  0.8631 -0.1620  0.1251
 1666SOL    HW2 5134   1.015   0.785   0.946  0.9380 -0.0925 -0.0025
 1667SOL     OW 5135   2.230   3.283   1.398  0.7513  0.4789 -0.9574
 1667SOL    HW1 5136   2.231   3.265   1.492 -1.4030 -1.6751 -1.2458
 1667SOL    HW2 5137   2.317   3.257   1.367  1.1425  0.2705  0.2613
 1668SOL     OW 5138   3.659   2.877   1.513  0.4165 -0.3513 -0.0174
 1668SOL    HW1 5139   3.699   2.871   1.600  0.9972 -0.8525 -0.3057
 1668SOL    HW2 5140   3.690   2.798   1.468  1.1918  0.5417 -1.1014
 1669SOL     OW 5141   1.261   3.813   1.066  0.3535  0.6977  0.2829
 1669SOL    HW1 5142   1.292   3.892   1.109  0.1120  2.4484 -2.5336
 1669SOL    HW2 5143   1.339   3.774   1.026  0.3060  0.0357  0.8103
 1670SOL     OW 5144   1.057   2.453   3.862 -0.1613  0.3319 -0.7414
 1670SOL    HW1 5145   1.139   2.501   3.848  0.6200 -0.2979  1.3178
 1670SOL    HW2 5146   1.045   2.452   3.957 -3.2770  1.4772 -1.0052
 1671SOL     OW 5147   1.746   0.328   2.479 -0.3770 -0.2721  0.4623
 1671SOL    HW1 5148   1.825   0.352   2.431 -0.1925  0.6443  1.2136
 1671SOL    HW2 5149   1.735   0.234   2.460  1.5488 -0.7064  1.2962
 1672SOL     OW 5150   0.565   2.165   2.840  0.2974 -0.1664  0.2731
 1672SOL    HW1 5151   0.651   2.146   2.876  0.7764 -0.4412 -0.9468
 1672SOL    HW2 5152   0.575   2.250   2.797 -0.5194  0.6089  1.5550
 1673SOL     OW 5153   2.272   3.316   0.119 -0.3010  0.1369 -0.7712
 1673SOL    HW1 5154   2.364   3.330   0.098 -0.1892 -0.9852 -1.1357
 1673SOL    HW2 5155   2.270   3.301   0.213  0.2051 -1.8801 -1.0388
 1674SOL     OW 5156   2.213   1.330   3.421 -0.2651 -0.4037  0.5210
 1674SOL    HW1 5157   2.132   1.280   3.432  0.1013 -1.0737  0.2477
 1674SOL    HW2 5158   2.239   1.353   3.510 -1.2094  0.5720  0.5603
 1675SOL     OW 5159   1.896   1.089   2.185  0.1001 -0.2493 -0.2558
 1675SOL    HW1 5160   1.894   0.993   2.188  0.1516 -0.2201  1.1003
 1675SOL    HW2 5161   1.939   1.109   2.102  3.8190 -1.4596  1.1683
 1676SOL     OW 5162   0.468   0.010   1.512 -0.1311  0.3387  0.2168
 1676SOL    HW1 5163   0.397   0.010   1.577  0.2861 -0.3854  0.6931
 1676SOL    HW2 5164   0.466   0.098   1.474 -1.2628  0.3365  0.2385
 1677SOL     OW 5165   1.569   1.282   2.358  0.0272 -0.0228 -0.1042
 1677SOL    HW1 5166   1.501   1.277   2.425  0.6768 -0.4280  0.5475
 1677SOL    HW2 5167   1.535   1.343   2.293 -1.7224 -1.5313 -0.6866
 1678SOL     OW 5168   1.297   2.070   0.824  0.1109  0.6134  0.5263
 1678SOL    HW1 5169   1.288   2.161   0.853 -1.2219  0.4725  0.6313
 1678SOL    HW2 5170   1.264   2.019   0.898 -0.2759  0.1112  0.0139
 1679SOL     OW 5171   1.937   2.938   2.701  0.5315 -0.3687 -0.3537
 1679SOL    HW1 5172   2.025   2.973   2.693  1.0426 -1.4089  0.3862
 1679SOL    HW2 5173   1.884   2.989   2.640  1.7228  0.0080 -1.0950
 1680SOL     OW 5174   3.750   3.254   3.772 -0.3056  0.0687 -0.3633
 1680SOL    HW1 5175   3.789   3.178   3.815  1.6723  0.3089 -1.6216
 1680SOL    HW2 5176   3.756   3.325   3.836 -0.6102 -0.4109  0.2038
 1681SOL     OW 5177   1.529   1.624   0.776 -0.1293  0.3566  0.4625
 1681SOL    HW1 5178   1.573   1.699   0.816  0.9255 -0.0168  0.0397
 1681SOL    HW2 5179   1.461   1.663   0.720  1.1794  1.0901 -0.6916
 1682SOL     OW 5180   0.124   3.902   2.173 -0.3373 -0.0480  0.5656
 1682SOL    HW1 5181   0.119   3.810   2.147  3.4738 -0.3150  0.2497
 1682SOL    HW2 5182   0.167   3.900   2.259  1.3010  1.4592 -0.1672
 1683SOL     OW 5183   1.243   2.727   2.570  0.4127  0.0670 -0.5663
 1683SOL    HW1 5184   1.288   2.687   2.644  1.9560 -1.6959 -2.3747
 1683SOL    HW2 5185   1.303   2.795   2.539  0.4297 -0.1809 -1.0833
 1684SOL     OW 5186   3.016   2.353   2.073  0.5974  0.2025 -0.5288
 1684SOL    HW1 5187   3.074   2.349   2.149  2.0756  1.4314 -1.5491
 1684SOL    HW2 5188   2.928   2.352   2.111  1.2888  0.7129  1.1981
 1685SOL     OW 5189   2.043   0.485   0.816  0.4084 -0.4841  0.0322
 1685SOL    HW1 5190   2.008   0.442   0.737  0.5237 -1.0861  0.3003
 1685SOL    HW2 5191   2.110   0.425   0.847 -0.3058 -0.7394  1.1426
 1686SOL     OW 5192   3.822   3.056   3.236 -0.2125 -0.1879  0.2146
 1686SOL    HW1 5193   3.732   3.031   3.256 -1.1323  0.4537 -2.6547
 1686SOL    HW2 5194   3.841   3.127   3.298 -1.6775 -0.3041  0.8433
 1687SOL     OW 5195   0.943   0.758   3.677  0.2303 -0.3137 -0.4560
 1687SOL    HW1 5196   1.019   0.726   3.726  0.7678 -0.4880 -1.3915
 1687SOL    HW2 5197   0.881   0.685   3.676 -0.5466  0.2511  1.4500
 1688SOL     OW 5198   0.008   1.610   2.347 -0.5640  0.1692  0.0590
 1688SOL    HW1 5199  -0.026   1.521   2.357 -0.2843  0.2170  1.7693
 1688SOL    HW2 5200   0.034   1.616   2.255  0.9609 -2.1012  0.2694
 1689SOL     OW 5201   3.185   2.991   0.785  0.7468  0.4977 -0.2370
 1689SOL    HW1 5202   3.167   2.975   0.692  0.8778  0.5240 -0.2671
 1689SOL    HW2 5203   3.110   2.952   0.830  0.1616  1.4013 -0.4012
 1690SOL     OW 5204   1.038   3.731   3.734 -0.0593  0.2615  0.7985
 1690SOL    HW1 5205   0.957   3.746   3.685 -0.1413  2.2690  1.4811
 1690SOL    HW2 5206   1.106   3.727   3.668 -0.3239  1.7606  0.4080
 1691SOL     OW 5207   0.926   3.017   2.827  0.1495  0.3395 -0.2676
 1691SOL    HW1 5208   0.935   3.081   2.757  0.3160  0.8715  0.2306
 1691SOL    HW2 5209   0.877   3.064   2.896  0.4980  0.0180  0.2047
 1692SOL     OW 5210   1.022   1.776   2.465 -0.5843 -0.1466 -0.2753
 1692SOL    HW1 5211   0.967   1.841   2.420 -0.2551  0.5315  0.2899
 1692SOL    HW2 5212   1.109   1.789   2.429 -0.7946 -1.3469 -1.3035
 1693SOL     OW 5213   0.125   3.332   0.239  0.4459 -0.0689 -0.4620
 1693SOL    HW1 5214   0.170   3.258   0.280 -0.8305 -0.3440  0.5209
 1693SOL    HW2 5215   0.126   3.312   0.146 -1.6659 -2.4375 -0.0844
 1694SOL     OW 5216   0.909   0.300   0.372 -0.0314  0.0096  0.0980
 1694SOL    HW1 5217   0.934   0.376   0.320  1.0312 -0.8999 -0.7882
 1694SOL    HW2 5218   0.964   0.306   0.451  1.0252 -0.4950 -0.5674
 1695SOL     OW 5219   0.076   2.521   0.081  0.2936  0.1188 -0.2387
 1695SOL    HW1 5220   0.118   2.436   0.097  0.3800  0.7065  3.5027
 1695SOL    HW2 5221   0.089   2.570   0.162 -1.7226  2.9068 -1.4386
 1696SOL     OW 5222   1.684   1.489   1.468 -0.2339  0.3401  0.1277
 1696SOL    HW1 5223   1.596   1.475   1.504 -1.2513 -0.4929 -2.5114
 1696SOL    HW2 5224   1.676   1.470   1.375  2.9167 -0.3844 -0.1051
 1697SOL     OW 5225   1.043   0.226   3.766 -0.3591  0.1040  0.0387
 1697SOL    HW1 5226   1.038   0.280   3.687  0.5115  3.1133  1.8689
 1697SOL    HW2 5227   1.135   0.233   3.793 -0.4704 -1.5184  0.9080
 1698SOL     OW 5228   0.621   2.802   0.838  0.1114  0.3044  0.4280
 1698SOL    HW1 5229   0.606   2.892   0.808  0.4196  0.5253  0.9143
 1698SOL    HW2 5230   0.546   2.783   0.895  2.5764  2.3300  4.9549
 1699SOL     OW 5231   1.101   1.212   3.481 -0.1171  0.3581  0.2596
 1699SOL    HW1 5232   1.030   1.172   3.430 -0.9366  0.1897  1.4720
 1699SOL    HW2 5233   1.076   1.196   3.572  1.6029  0.1207  0.7129
 1700SOL     OW 5234   0.828   0.395   1.240  0.4158  0.4172 -0.4965
 1700SOL    HW1 5235   0.844   0.403   1.334 -3.7953  0.4063  0.4146
 1700SOL    HW2 5236   0.838   0.302   1.222  0.4105  0.2914  0.1171
 1701SOL     OW 5237   0.077   0.413   0.396  0.0094 -0.6669 -0.8261
 1701SOL    HW1 5238   0.162   0.423   0.353 -0.4438  0.9399 -1.4305
 1701SOL    HW2 5239   0.015   0.453   0.336 -0.7048  1.2557  1.0568
 1702SOL     OW 5240   3.964   1.556   3.250 -0.3449  0.8861 -0.4628
 1702SOL    HW1 5241   3.932   1.629   3.197 -2.1138  0.2304 -0.3774
 1702SOL    HW2 5242   3.884   1.513   3.283  0.6567  0.7196  1.9961
 1703SOL     OW 5243   1.323   1.539   3.079 -0.1138 -0.6236 -0.0592
 1703SOL    HW1 5244   1.365   1.589   3.149 -0.6743 -0.4015  0.1266
 1703SOL    HW2 5245   1.392   1.483   3.044  0.2383 -0.5335  0.4866
 1704SOL     OW 5246   2.040   0.464   1.098  0.3535 -0.4205 -0.4804
 1704SOL    HW1 5247   2.014   0.508   1.017  1.5053  0.1724 -0.5573
 1704SOL    HW2 5248   2.089   0.387   1.068  0.3535 -0.4721 -0.3462
 1705SOL     OW 5249   1.009   2.866   3.845 -0.2575  0.4383  0.7803
 1705SOL    HW1 5250   1.038   2.929   3.779  0.1564 -0.3413  0.2057
 1705SOL    HW2 5251   1.043   2.900   3.928  1.4283  0.0809  0.2580
 1706SOL     OW 5252   3.358   0.124   2.024 -0.7061 -0.0139 -0.1398
 1706SOL    HW1 5253   3.416   0.186   2.069  0.1792 -0.1463 -1.0728
 1706SOL    HW2 5254   3.275   0.171   2.017  0.5326  2.0736 -2.8378
 1707SOL     OW 5255   2.609   2.819   3.065  0.2079  0.0520  0.0838
 1707SOL    HW1 5256   2.628   2.868   2.984 -0.3941  1.0659  0.5403
 1707SOL    HW2 5257   2.521   2.847   3.089  0.6756  0.3488  1.5152
 1708SOL     OW 5258   1.142   3.363   1.072 -0.8092 -0.0737  0.3729
 1708SOL    HW1 5259   1.081   3.374   0.998 -0.1722  1.4417  0.0289
 1708SOL    HW2 5260   1.088   3.374   1.150 -1.2680 -0.4427  0.1106
 1709SOL     OW 5261   1.164   3.628   0.697  0.0615 -0.6293 -0.2382
 1709SOL    HW1 5262   1.205   3.713   0.680 -0.2640 -0.5540 -0.6618
 1709SOL    HW2 5263   1.237   3.566   0.699  0.0643 -0.8738 -3.2706
 1710SOL     OW 5264   2.987   1.741   3.127  0.0575  0.3996 -0.0764
 1710SOL    HW1 5265   2.945   1.827   3.123  0.3281  0.5953  0.8736
 1710SOL    HW2 5266   2.940   1.688   3.064 -0.0421  1.2776 -0.7594
 1711SOL     OW 5267   3.038   2.761   1.721 -0.1285 -0.0277 -0.5239
 1711SOL    HW1 5268   3.078   2.678   1.698 -2.0643 -1.7955  1.9492
 1711SOL    HW2 5269   2.994   2.790   1.641  0.5866 -1.3815 -1.4255
 1712SOL     OW 5270   0.970   3.872   2.833  0.3375 -0.4277 -0.3615
 1712SOL    HW1 5271   1.064   3.882   2.843  0.4757  0.0515 -1.8106
 1712SOL    HW2 5272   0.958   3.788   2.790  0.0985 -0.5333 -0.0918
 1713SOL     OW 5273   2.974   0.927   3.207  0.3842  0.8550  0.4799
 1713SOL    HW1 5274   2.889   0.898   3.175  1.3392 -1.9142  0.1248
 1713SOL    HW2 5275   2.975   0.902   3.300  0.7611  0.9691  0.5118
 1714SOL     OW 5276   2.252   3.189   0.972 -0.4089  0.2571  0.6929
 1714SOL    HW1 5277   2.294   3.137   1.041 -0.2677 -1.1130 -0.4050
 1714SOL    HW2 5278   2.292   3.160   0.891 -1.9220  0.4664 -0.1793
 1715SOL     OW 5279   2.799   2.383   1.707 -0.2681 -0.0959  0.0694
 1715SOL    HW1 5280   2.712   2.355   1.736 -0.5106 -0.4670 -0.9703
 1715SOL    HW2 5281   2.811   2.469   1.748 -1.2063  0.0427  0.0782
 1716SOL     OW 5282   3.140   1.743   0.869  0.1383  0.0090  0.3946
 1716SOL    HW1 5283   3.060   1.706   0.906 -0.1156 -0.5770 -0.6915
 1716SOL    HW2 5284   3.110   1.803   0.800  0.6262 -0.4309 -0.2153
 1717SOL     OW 5285   1.651   1.858   0.832  0.0813 -0.7268  0.6945
 1717SOL    HW1 5286   1.614   1.912   0.902 -1.2713  1.2908 -1.4142
 1717SOL    HW2 5287   1.731   1.904   0.807 -0.3933 -0.3670 -0.2349
 1718SOL     OW 5288   2.018   3.336   0.758 -0.8192 -0.6370  0.3161
 1718SOL    HW1 5289   1.951   3.284   0.802 -1.1370 -0.4021  0.1144
 1718SOL    HW2 5290   2.043   3.402   0.823 -1.4244 -0.1718  0.0837
 1719SOL     OW 5291   3.908   1.629   0.820  0.1732 -0.2210 -0.6977
 1719SOL    HW1 5292   3.844   1.627   0.891  2.5249  1.8659  1.6817
 1719SOL    HW2 5293   3.872   1.691   0.757 -0.2680  0.7799  0.5070
 1720SOL     OW 5294   3.814   2.704   2.410  0.3556  0.2046 -0.4886
 1720SOL    HW1 5295   3.877   2.633   2.396 -0.2895 -0.8036  1.3887
 1720SOL    HW2 5296   3.858   2.782   2.376  1.6889 -0.8406 -1.2644
 1721SOL     OW 5297   0.088   1.618   2.041 -0.8362 -0.2893  0.2917
 1721SOL    HW1 5298   0.073   1.528   2.015  1.1437 -0.2686 -1.1364
 1721SOL    HW2 5299   0.182   1.624   2.056 -1.0524  1.3212  1.2862
 1722SOL     OW 5300   1.615   3.675   2.208 -0.7234  0.0545 -0.7889
 1722SOL    HW1 5301   1.659   3.589   2.209  0.8281  0.7990  1.2585
 1722SOL    HW2 5302   1.643   3.714   2.125  1.2726 -0.1459 -0.2603
 1723SOL     OW 5303   1.951   2.458   1.753  0.5500 -0.4499  0.4356
 1723SOL    HW1 5304   2.024   2.519   1.763 -0.0485  0.2381  0.6831
 1723SOL    HW2 5305   1.957   2.400   1.829  0.1534  0.3466  1.0885
 1724SOL     OW 5306   1.127   3.407   2.039 -0.0558 -0.9730 -0.4935
 1724SOL    HW1 5307   1.117   3.481   2.099 -0.9142 -0.6044 -1.0679
 1724SOL    HW2 5308   1.222   3.393   2.033  0.4736  2.3145 -3.0112
 1725SOL     OW 5309   3.304   0.872   0.664 -0.8607  0.1515 -0.2552
 1725SOL    HW1 5310   3.209   0.864   0.664 -0.9714  1.0921  0.8339
 1725SOL    HW2 5311   3.335   0.795   0.712 -1.1205  0.2347  0.0447
 1726SOL     OW 5312   0.549   0.750   1.330  0.3724 -0.2873 -0.2061
 1726SOL    HW1 5313   0.540   0.841   1.303 -1.5450  0.1065  1.4392
 1726SOL    HW2 5314   0.483   0.703   1.278  0.9209 -0.6380 -0.5953
 1727SOL     OW 5315   2.551   2.600   2.379  0.4126 -0.0966 -0.1897
 1727SOL    HW1 5316   2.601   2.682   2.382  1.3825 -0.5693 -1.9511
 1727SOL    HW2 5317   2.469   2.624   2.335 -0.8894  0.6173  2.4430
 1728SOL     OW 5318   3.966   2.478   1.270 -0.1835  0.2636 -0.3690
 1728SOL    HW1 5319   3.942   2.406   1.328 -0.8784  0.3015 -0.6046
 1728SOL    HW2 5320   3.910   2.467   1.193 -0.7347  1.4074 -0.1445
 1729SOL     OW 5321   3.368   1.475   2.828  0.4689  0.0288  0.1553
 1729SOL    HW1 5322   3.365   1.527   2.747 -0.7392 -0.7480 -0.3227
 1729SOL    HW2 5323   3.439   1.515   2.879 -0.9504  2.7353  0.2014
 1730SOL     OW 5324   3.145   1.359   3.914  0.1345  0.7517 -0.0004
 1730SOL    HW1 5325   3.229   1.362   3.868 -0.4648  2.4782 -1.0541
 1730SOL    HW2 5326   3.079   1.368   3.845 -0.7760  4.3976  1.1516
 1731SOL     OW 5327   0.086   3.004   3.568  0.3072  0.2210 -0.1388
 1731SOL    HW1 5328   0.023   3.048   3.626 -0.6543  1.5978 -2.1062
 1731SOL    HW2 5329   0.163   3.060   3.570  1.5545 -1.3892  2.1543
 1732SOL     OW 5330   1.095   0.448   0.760  0.1584  0.2000  0.4078
 1732SOL    HW1 5331   1.144   0.405   0.830  0.1780 -0.4809 -0.0136
 1732SOL    HW2 5332   1.106   0.390   0.684 -2.8001 -1.0063  0.7517
 1733SOL     OW 5333   2.149   1.423   3.163  0.2460 -0.0402  0.3318
 1733SOL    HW1 5334   2.057   1.437   3.143  0.2302 -0.4959  0.0709
 1733SOL    HW2 5335   2.149   1.381   3.249  0.2695  1.0496  0.8710
 1734SOL     OW 5336   0.111   3.232   1.527  0.0381  0.1375 -0.7601
 1734SOL    HW1 5337   0.191   3.192   1.494 -0.5123 -0.7741 -1.0293
 1734SOL    HW2 5338   0.040   3.189   1.478 -0.8201 -1.3013  1.6100
 1735SOL     OW 5339   1.584   2.020   1.034  0.1701  0.8334 -0.1839
 1735SOL    HW1 5340   1.654   2.070   1.076  0.1558 -0.3318  1.3385
 1735SOL    HW2 5341   1.513   2.083   1.022  0.6431  1.4942  0.3995
 1736SOL     OW 5342   3.165   3.351   1.703  0.2364 -0.0013  0.8602
 1736SOL    HW1 5343   3.087   3.297   1.698  1.6119 -2.1040  0.7421
 1736SOL    HW2 5344   3.187   3.353   1.796  0.6353 -0.3493  0.7779
 1737SOL     OW 5345   0.532   1.054   1.401 -0.5224  0.4317  0.1533
 1737SOL    HW1 5346   0.570   1.132   1.359 -0.2835  1.3634  1.9626
 1737SOL    HW2 5347   0.467   1.090   1.462  0.4888 -0.6579  1.9591
 1738SOL     OW 5348   0.579   3.247   2.137 -0.4184  0.2025  0.2631
 1738SOL    HW1 5349   0.666   3.286   2.145 -1.2739  2.3704 -0.2531
 1738SOL    HW2 5350   0.532   3.275   2.215 -0.7576 -0.7419  0.4148
 1739SOL     OW 5351   1.396   0.154   2.243 -0.1514 -0.4207 -0.1585
 1739SOL    HW1 5352   1.320   0.105   2.212  0.6205 -2.2378  0.6653
 1739SOL    HW2 5353   1.365   0.244   2.251 -1.7511 -0.8242 -1.3516
 1740SOL     OW 5354   3.404   3.194   1.594  0.3505 -0.2695  0.3292
 1740SOL    HW1 5355   3.386   3.139   1.517  1.2610  1.3980 -1.1542
 1740SOL    HW2 5356   3.322   3.241   1.610  1.0839  2.0139 -1.9450
 1741SOL     OW 5357   2.543   3.344   1.064  0.9707 -0.1294 -0.2193
 1741SOL    HW1 5358   2.481   3.382   1.002 -0.6500 -1.9823  0.1541
 1741SOL    HW2 5359   2.628   3.379   1.038 -0.1225  1.9712 -1.1953
 1742SOL     OW 5360   3.025   2.624   2.067  0.1574  0.1535 -0.1530
 1742SOL    HW1 5361   3.048   2.539   2.103 -2.1510 -0.2004  0.6380
 1742SOL    HW2 5362   2.965   2.663   2.131  0.5746  2.0730 -0.8399
 1743SOL     OW 5363   3.185   2.017   1.238  0.0737 -0.1248 -0.0436
 1743SOL    HW1 5364   3.233   2.021   1.156  3.4383 -1.3856  1.6590
 1743SOL    HW2 5365   3.200   1.928   1.271 -1.0464  0.3598  1.9735
 1744SOL     OW 5366   2.082   1.344   3.702 -0.6152  0.3761 -0.4289
 1744SOL    HW1 5367   1.989   1.366   3.705 -0.4704  0.9037  0.9937
 1744SOL    HW2 5368   2.085   1.248   3.707 -1.0724  0.4066  0.8086
 1745SOL     OW 5369   1.998   2.421   3.166 -0.5604 -0.1010 -0.1793
 1745SOL    HW1 5370   1.985   2.327   3.163  1.7267 -0.4764  0.2376
 1745SOL    HW2 5371   1.944   2.456   3.095 -3.0201 -1.4636  0.8820
 1746SOL     OW 5372   2.925   0.181   1.859 -0.7460 -0.6615 -0.4137
 1746SOL    HW1 5373   2.885   0.225   1.934  0.8621 -0.0363  0.1204
 1746SOL    HW2 5374   2.867   0.201   1.785  0.7941  4.1097 -0.6458
 1747SOL     OW 5375   3.671   0.820   3.207 -0.2335  0.0666 -1.0607
 1747SOL    HW1 5376   3.635   0.841   3.293 -0.4752 -0.6466 -0.9762
 1747SOL    HW2 5377   3.638   0.889   3.149  0.7423  1.1157 -0.4024
 1748SOL     OW 5378   1.577   1.766   1.221  0.0718  0.1031 -0.0575
 1748SOL    HW1 5379   1.586   1.849   1.173  0.1245  0.9371  1.3507
 1748SOL    HW2 5380   1.662   1.724   1.213 -0.6736 -1.1480 -3.0364
 1749SOL     OW 5381   0.088   0.617   3.690  0.4942  0.3894 -0.2373
 1749SOL    HW1 5382   0.036   0.567   3.753  1.4619 -0.8833 -0.4160
 1749SOL    HW2 5383   0.118   0.552   3.627 -0.9204  1.7087 -2.3827
 1750SOL     OW 5384   0.798   3.101   3.035  0.3399  0.7000  0.1344
 1750SOL    HW1 5385   0.734   3.032   3.049  0.6870  0.2209 -0.5950
 1750SOL    HW2 5386   0.839   3.114   3.121  1.0756 -0.8088  0.0440
 1751SOL     OW 5387   3.977   3.780   2.818  0.3294  0.2195  0.4342
 1751SOL    HW1 5388   4.012   3.702   2.775  0.4640  0.5954 -0.1518
 1751SOL    HW2 5389   3.892   3.753   2.852  0.6504 -0.3574  0.7900
 1752SOL     OW 5390   0.594   0.065   3.270  0.0720  0.4978 -0.6117
 1752SOL    HW1 5391   0.529  -0.005   3.276 -0.7126  1.2195 -0.3878
 1752SOL    HW2 5392   0.677   0.021   3.254 -0.5292 -0.4287 -1.2182
 1753SOL     OW 5393   2.723   3.189   2.967  0.2658 -0.2675  0.0392
 1753SOL    HW1 5394   2.800   3.239   2.993  0.3859  0.6489 -1.8874
 1753SOL    HW2 5395   2.678   3.169   3.049  1.2388  1.3273  1.0111
 1754SOL     OW 5396   3.746   0.645   1.113 -0.0177  0.2050 -0.2926
 1754SOL    HW1 5397   3.779   0.594   1.039  0.1866  0.1378 -0.1533
 1754SOL    HW2 5398   3.779   0.734   1.097 -0.0800  0.2178 -0.3496
 1755SOL     OW 5399   2.640   2.852   1.306  0.2578 -0.5233 -0.1622
 1755SOL    HW1 5400   2.706   2.806   1.358 -0.3735  0.2805  1.4049
 1755SOL    HW2 5401   2.609   2.786   1.243 -0.2824 -2.1158  1.6791
 1756SOL     OW 5402   2.007   3.692   0.607 -0.0670 -0.2633  0.2610
 1756SOL    HW1 5403   1.997   3.746   0.686  1.8598  1.0463 -0.3240
 1756SOL    HW2 5404   2.088   3.723   0.566 -0.5013 -1.5605 -1.7442
 1757SOL     OW 5405   0.969   2.365   2.994  0.2222 -0.4903 -0.3624
 1757SOL    HW1 5406   0.950   2.436   2.934 -2.8195  0.8715  1.9641
 1757SOL    HW2 5407   0.928   2.288   2.955  0.3473 -0.1743 -1.1276
 1758SOL     OW 5408   3.932   3.720   2.480  0.5815  0.3102 -0.4061
 1758SOL    HW1 5409   4.027   3.734   2.485  0.5338  1.0711 -1.4227
 1758SOL    HW2 5410   3.910   3.740   2.390 -0.3628 -1.0924 -0.5144
 1759SOL     OW 5411   0.067   0.865   2.672  0.2240 -0.5662  0.1351
 1759SOL    HW1 5412   0.076   0.920   2.594 -1.2671 -0.4528  0.0001
 1759SOL    HW2 5413  -0.015   0.817   2.657  1.4096 -2.7435  0.3211
 1760SOL     OW 5414   1.371   1.034   1.594  1.1333  0.7134 -0.0214
 1760SOL    HW1 5415   1.464   1.041   1.616  1.1708 -1.4653  0.7311
 1760SOL    HW2 5416   1.369   1.030   1.499  1.8564  0.3047 -0.0276
 1761SOL     OW 5417   3.530   1.589   2.536 -0.7700 -0.0029 -0.6530
 1761SOL    HW1 5418   3.506   1.503   2.500 -0.8631 -0.3352  0.1784
 1761SOL    HW2 5419   3.606   1.571   2.591 -1.7631  0.1560  0.8168
 1762SOL     OW 5420   1.269   2.635   3.832 -0.1953  0.2892  0.5138
 1762SOL    HW1 5421   1.287   2.629   3.926  1.7574 -0.8546  0.1226
 1762SOL    HW2 5422   1.294   2.724   3.808 -1.6218  0.9091  1.2179
 1763SOL     OW 5423   2.878   3.512   0.682 -0.5495  0.2925  0.5665
 1763SOL    HW1 5424   2.904   3.424   0.710 -1.4340 -0.3101 -0.4301
 1763SOL    HW2 5425   2.903   3.568   0.755 -1.4369 -1.0019  1.9314
 1764SOL     OW 5426   2.852   2.995   1.178 -0.4780  0.2267 -0.3861
 1764SOL    HW1 5427   2.769   2.949   1.186  0.2369 -1.2092 -0.8006
 1764SOL    HW2 5428   2.833   3.085   1.205 -2.4822  0.3219 -1.8921
 1765SOL     OW 5429   0.444   1.397   2.777 -0.5555  0.6537  0.3266
 1765SOL    HW1 5430   0.468   1.325   2.837  0.1990  0.7674  0.1708
 1765SOL    HW2 5431   0.430   1.472   2.835 -0.3284  0.6335  0.4124
 1766SOL     OW 5432   1.867   1.736   1.418  0.2704  0.4228  0.0147
 1766SOL    HW1 5433   1.949   1.736   1.467  1.1833  0.5655 -1.4886
 1766SOL    HW2 5434   1.856   1.646   1.389  1.6100  0.9913 -2.5195
 1767SOL     OW 5435   2.257   1.851   3.414 -0.2685  0.0394 -0.6375
 1767SOL    HW1 5436   2.283   1.929   3.364  0.6562 -0.8989 -1.6828
 1767SOL    HW2 5437   2.318   1.848   3.487 -2.7865  2.4830  1.8296
 1768SOL     OW 5438   0.484   2.999   1.959  0.4685 -0.0294  0.4450
 1768SOL    HW1 5439   0.529   3.058   2.019  0.3774 -1.6259  2.2000
 1768SOL    HW2 5440   0.391   3.018   1.972  0.5040  0.8189 -0.5077
 1769SOL     OW 5441   0.325   1.727   0.003 -0.4086 -0.9565  0.1693
 1769SOL    HW1 5442   0.318   1.815  -0.035  0.6993  0.1015  2.2619
 1769SOL    HW2 5443   0.322   1.741   0.098 -1.2940 -3.3130  0.5630
 1770SOL     OW 5444   1.612   2.452   1.073  0.2315  1.0268 -0.6573
 1770SOL    HW1 5445   1.690   2.507   1.067  1.7772 -0.7065  1.7250
 1770SOL    HW2 5446   1.614   2.416   1.162 -3.3957  0.9710 -0.4179
 1771SOL     OW 5447   1.730   1.898   2.021  0.3111  0.4477  0.6651
 1771SOL    HW1 5448   1.803   1.924   1.966 -0.0352 -0.2492 -0.1367
 1771SOL    HW2 5449   1.653   1.933   1.977  0.2064  2.0163  2.0086
 1772SOL     OW 5450   0.449   2.720   0.112  0.0406 -1.1844  0.2204
 1772SOL    HW1 5451   0.370   2.675   0.140 -1.3615  0.5651 -0.7130
 1772SOL    HW2 5452   0.437   2.810   0.140  0.3120 -0.2225 -2.4663
 1773SOL     OW 5453   0.333   3.101   1.455 -0.3346 -0.6332  0.2425
 1773SOL    HW1 5454   0.373   3.171   1.404  0.7375 -1.9198 -0.7381
 1773SOL    HW2 5455   0.327   3.027   1.395 -0.0733 -1.8570  1.6451
 1774SOL     OW 5456   2.995   2.991   1.877 -0.0582  0.0146 -0.1970
 1774SOL    HW1 5457   3.016   3.049   1.804  3.0828 -0.2557  0.3341
 1774SOL    HW2 5458   2.998   2.903   1.838  0.2294 -0.0527 -0.0233
 1775SOL     OW 5459   3.195   3.508   1.468 -0.2770 -0.0979  0.1248
 1775SOL    HW1 5460   3.169   3.502   1.560 -1.5616  1.4897 -0.0890
 1775SOL    HW2 5461   3.291   3.506   1.470 -0.2643  0.6782  1.5747
 1776SOL     OW 5462   2.484   3.328   2.640 -0.4178  0.1125  0.3097
 1776SOL    HW1 5463   2.424   3.334   2.565 -0.2928  0.2875  0.2240
 1776SOL    HW2 5464   2.489   3.417   2.674 -1.3572 -0.1629  1.2215
 1777SOL     OW 5465   3.516   3.872   3.094  0.3874 -0.0973 -0.2604
 1777SOL    HW1 5466   3.577   3.925   3.144 -0.7274 -0.0182  1.0556
 1777SOL    HW2 5467   3.463   3.826   3.159  0.7505 -2.2053 -1.3421
 1778SOL     OW 5468   2.825   3.214   1.340 -0.1057  0.5308  0.0946
 1778SOL    HW1 5469   2.909   3.257   1.324  0.4868 -0.8815 -0.7877
 1778SOL    HW2 5470   2.765   3.285   1.361  0.8759  1.7569 -1.0782
 1779SOL     OW 5471   1.070   3.603   2.245  0.2409  0.2165  0.5152
 1779SOL    HW1 5472   1.114   3.534   2.294  1.3934 -0.0639 -0.8310
 1779SOL    HW2 5473   1.099   3.684   2.286  0.1968 -0.0419  1.0685
 1780SOL     OW 5474   2.905   0.584   1.790 -0.3422 -0.4975 -0.3213
 1780SOL    HW1 5475   2.826   0.590   1.845  1.2455  0.9228  2.0005
 1780SOL    HW2 5476   2.891   0.648   1.721 -2.0378 -1.7057 -1.1574
 1781SOL     OW 5477   0.584   3.094   1.003  0.6054  0.6495 -0.4084
 1781SOL    HW1 5478   0.553   3.013   1.043 -1.4628  0.6986 -1.7693
 1781SOL    HW2 5479   0.624   3.143   1.075 -0.2045 -0.5794  0.9177
 1782SOL     OW 5480   0.824   0.210   3.102 -0.4976  0.0202  0.0399
 1782SOL    HW1 5481   0.788   0.298   3.112 -1.0243 -0.1017 -0.6760
 1782SOL    HW2 5482   0.828   0.196   3.008  0.8337 -0.2317  0.1221
 1783SOL     OW 5483   1.142   1.911   3.434  0.0325  0.6667 -0.4842
 1783SOL    HW1 5484   1.098   1.973   3.376  2.1604 -0.4634 -3.5480
 1783SOL    HW2 5485   1.132   1.949   3.522 -1.6351  3.5231 -1.7776
 1784SOL     OW 5486   3.004   1.404   3.456  0.0258 -0.2106 -0.2958
 1784SOL    HW1 5487   3.068   1.447   3.399 -2.4976  1.6144 -1.9964
 1784SOL    HW2 5488   2.989   1.319   3.414  1.5599 -0.8416  0.3644
 1785SOL     OW 5489   2.147   3.082   2.528 -0.0733  0.5621  0.2121
 1785SOL    HW1 5490   2.144   3.003   2.473 -0.6109  1.3019 -0.8616
 1785SOL    HW2 5491   2.211   3.139   2.484  0.7594  0.4987  1.3129
 1786SOL     OW 5492   0.423   3.482   0.200 -0.1132 -0.5118  0.0974
 1786SOL    HW1 5493   0.422   3.499   0.106 -0.3893 -1.4920 -0.0820
 1786SOL    HW2 5494   0.334   3.452   0.220  0.0738 -0.7365  0.5965
 1787SOL     OW 5495   3.079   3.967   2.171 -0.6043 -0.4329 -0.6152
 1787SOL    HW1 5496   3.125   3.911   2.232  0.9699 -0.8312 -2.0935
 1787SOL    HW2 5497   3.065   3.913   2.093  0.4916  1.0055 -1.8827
 1788SOL     OW 5498   1.007   3.643   2.673  0.0146 -0.5754 -0.2856
 1788SOL    HW1 5499   1.080   3.685   2.626 -0.2020  0.7360  0.5099
 1788SOL    HW2 5500   0.999   3.558   2.631  1.2830 -0.3173 -1.1427
 1789SOL     OW 5501   2.849   1.872   2.724 -0.1619 -0.0194 -0.6491
 1789SOL    HW1 5502   2.884   1.786   2.701 -0.0474  0.2179 -1.3977
 1789SOL    HW2 5503   2.759   1.856   2.751 -0.1963 -0.3579 -0.9588
 1790SOL     OW 5504   0.125   0.727   3.443 -0.3597  0.5386 -0.2327
 1790SOL    HW1 5505   0.094   0.696   3.528 -0.3581 -0.1427 -0.4739
 1790SOL    HW2 5506   0.060   0.696   3.380  1.1052 -1.5448 -0.8363
 1791SOL     OW 5507   0.952   0.478   1.800  0.9423 -0.6436 -0.5475
 1791SOL    HW1 5508   0.869   0.439   1.830  1.1146 -0.3122  0.3966
 1791SOL    HW2 5509   1.013   0.462   1.872  1.2626  0.5464 -0.5309
 1792SOL     OW 5510   1.441   2.675   1.073  0.7242  0.6849 -0.9474
 1792SOL    HW1 5511   1.482   2.725   1.003  1.1225 -0.3216 -1.4450
 1792SOL    HW2 5512   1.477   2.587   1.065  1.0956  0.6366  0.7804
 1793SOL     OW 5513   1.235   2.762   1.744 -0.2482  0.4810  0.0283
 1793SOL    HW1 5514   1.184   2.739   1.823 -1.9607  1.7133 -0.6614
 1793SOL    HW2 5515   1.287   2.838   1.770 -0.7445  0.8315  0.0072
 1794SOL     OW 5516   2.389   0.210   0.504  0.6470  0.5883 -0.2613
 1794SOL    HW1 5517   2.480   0.183   0.505  0.3188 -0.6211 -0.9602
 1794SOL    HW2 5518   2.339   0.129   0.516 -0.3473  1.1335 -0.5391
 1795SOL     OW 5519   2.056   0.129   0.450 -0.1198 -0.1636  0.2958
 1795SOL    HW1 5520   2.107   0.162   0.377  2.7555 -1.3673  1.5941
 1795SOL    HW2 5521   1.965   0.136   0.422  0.7818  1.1472 -2.5918
 1796SOL     OW 5522   0.072   1.580   1.139  0.2849  0.0623  0.0872
 1796SOL    HW1 5523   0.105   1.513   1.080  1.1106 -0.5219  1.1677
 1796SOL    HW2 5524   0.001   1.537   1.187  0.0860  0.3109  0.0190
 1797SOL     OW 5525   1.584   2.781   2.774  0.4426 -0.2272  0.1754
 1797SOL    HW1 5526   1.573   2.733   2.857 -0.0378  0.9765  0.8254
 1797SOL    HW2 5527   1.671   2.754   2.743  2.6864  2.5460  3.3056
 1798SOL     OW 5528   2.787   1.137   3.743  0.4802  0.0124  0.0044
 1798SOL    HW1 5529   2.786   1.084   3.663  1.7556 -0.4089  0.2492
 1798SOL    HW2 5530   2.870   1.116   3.785 -0.6318 -0.6017  2.0094
 1799SOL     OW 5531   1.544   2.594   0.246 -0.2083  0.3572  0.1961
 1799SOL    HW1 5532   1.570   2.681   0.217  0.4721 -0.2159 -0.9957
 1799SOL    HW2 5533   1.470   2.571   0.191 -0.1569  0.0462  0.2531
 1800SOL     OW 5534   3.816   3.593   1.766  0.1915  0.7650 -0.2381
 1800SOL    HW1 5535   3.903   3.584   1.727  0.2394 -0.9553  0.1873
 1800SOL    HW2 5536   3.775   3.508   1.752 -0.2657  0.5028  2.2931
 1801SOL     OW 5537   0.345   2.128   2.072 -0.1458 -0.2231  0.0653
 1801SOL    HW1 5538   0.366   2.066   2.142  0.6500 -0.7966 -0.6514
 1801SOL    HW2 5539   0.328   2.073   1.995 -0.6339  0.4069 -0.2934
 1802SOL     OW 5540   3.060   0.946   1.384  0.4069  0.1984  0.3954
 1802SOL    HW1 5541   3.013   1.029   1.392 -0.9302 -0.3332 -1.2165
 1802SOL    HW2 5542   3.110   0.956   1.302  1.9125  0.1682  1.2837
 1803SOL     OW 5543   2.735   1.204   0.637 -0.3748 -0.5167  0.0675
 1803SOL    HW1 5544   2.692   1.152   0.570  1.0347 -0.9475 -0.5524
 1803SOL    HW2 5545   2.825   1.169   0.640  0.9529  2.4666 -1.0899
 1804SOL     OW 5546   1.195   2.139   3.263  0.1497 -0.4548 -0.4015
 1804SOL    HW1 5547   1.137   2.110   3.192  1.5535 -0.5456 -1.5669
 1804SOL    HW2 5548   1.150   2.215   3.300 -0.7593 -0.5683 -1.2154
 1805SOL     OW 5549   3.378   2.789   2.596 -0.3286  0.6250 -0.4262
 1805SOL    HW1 5550   3.423   2.706   2.580  2.5802  1.4239  2.4828
 1805SOL    HW2 5551   3.323   2.772   2.673 -3.2442  0.3624 -2.4295
 1806SOL     OW 5552   1.179   2.581   1.123 -0.6576  0.4151 -0.4306
 1806SOL    HW1 5553   1.242   2.628   1.069 -0.9756  1.8460  0.3884
 1806SOL    HW2 5554   1.217   2.493   1.132  0.6099  0.8778 -0.9501
 1807SOL     OW 5555   0.238   0.859   3.775  0.8052 -0.0304 -0.1907
 1807SOL    HW1 5556   0.181   0.808   3.718 -0.5795 -0.0514  1.1507
 1807SOL    HW2 5557   0.302   0.898   3.715 -0.0575 -0.7314 -1.6390
 1808SOL     OW 5558  -0.019   0.896   0.584  0.5221  0.2607  0.0035
 1808SOL    HW1 5559  -0.036   0.984   0.618 -0.3165  0.7801 -1.6412
 1808SOL    HW2 5560   0.058   0.906   0.527 -1.6759  0.8527 -3.1608
 1809SOL     OW 5561   2.377   0.997   2.716 -0.1886 -0.7216  0.3078
 1809SOL    HW1 5562   2.316   0.929   2.742 -0.5112 -0.9990 -1.0572
 1809SOL    HW2 5563   2.459   0.950   2.699 -0.5918 -0.9086 -1.2782
 1810SOL     OW 5564   3.880   0.704   1.456  0.8478  0.0169 -0.7538
 1810SOL    HW1 5565   3.886   0.776   1.519  0.4095  0.0972 -0.8004
 1810SOL    HW2 5566   3.961   0.655   1.468 -0.5238 -1.8201  2.0607
 1811SOL     OW 5567   3.464   2.238   1.448 -0.5515  0.1444 -0.2423
 1811SOL    HW1 5568   3.488   2.164   1.504  0.0944 -0.3227 -1.1306
 1811SOL    HW2 5569   3.371   2.253   1.468 -0.2976  0.0944  1.0638
 1812SOL     OW 5570   2.561   1.327   3.613 -0.5053  0.1060 -0.4939
 1812SOL    HW1 5571   2.638   1.298   3.662  1.1510  2.5616 -1.4251
 1812SOL    HW2 5572   2.520   1.393   3.668  0.0168  1.1975 -1.3800
 1813SOL     OW 5573   3.270   1.284   1.244 -0.4154 -0.4598  0.3558
 1813SOL    HW1 5574   3.293   1.341   1.170 -2.5583 -0.9094 -0.7161
 1813SOL    HW2 5575   3.347   1.228   1.256  0.1760 -0.0320 -1.1918
 1814SOL     OW 5576   2.711   2.313   0.137  0.0063  0.3387  0.2964
 1814SOL    HW1 5577   2.709   2.299   0.042  0.8173  1.4683  0.0866
 1814SOL    HW2 5578   2.685   2.229   0.174 -1.8663  0.3267 -0.9341
 1815SOL     OW 5579   3.908   2.094   2.430  0.8124  0.3072 -0.3936
 1815SOL    HW1 5580   4.003   2.107   2.422  1.2312 -1.8721  0.1555
 1815SOL    HW2 5581   3.876   2.096   2.340  1.2804  1.6222 -0.5457
 1816SOL     OW 5582   3.309   3.371   2.190 -0.1460  0.9201 -0.4137
 1816SOL    HW1 5583   3.369   3.297   2.181  0.1918  1.2430 -0.8536
 1816SOL    HW2 5584   3.295   3.401   2.100 -1.9643  0.0593 -0.4729
 1817SOL     OW 5585   2.439   2.310   2.162 -0.5306 -0.6832 -0.0003
 1817SOL    HW1 5586   2.470   2.223   2.137  1.5547 -0.0228  0.1486
 1817SOL    HW2 5587   2.482   2.328   2.246 -1.2788  0.3134  0.1887
 1818SOL     OW 5588   3.227   3.288   1.183 -0.4329  0.1985  0.2169
 1818SOL    HW1 5589   3.249   3.313   1.272  1.3417 -2.6707  0.6950
 1818SOL    HW2 5590   3.305   3.309   1.132 -1.7080  2.5740 -0.9563
 1819SOL     OW 5591   1.496   0.352   3.087  1.3527 -0.1557  0.1458
 1819SOL    HW1 5592   1.487   0.326   3.179  0.5142  1.2124  0.4840
 1819SOL    HW2 5593   1.516   0.445   3.091 -0.4844  0.3279 -1.0942
 1820SOL     OW 5594   0.621   1.720   1.553  0.0197  0.0442  0.0707
 1820SOL    HW1 5595   0.572   1.651   1.597  2.9601 -2.5423 -0.3212
 1820SOL    HW2 5596   0.710   1.712   1.588  0.4055  4.2536  0.5677
 1821SOL     OW 5597   3.093   1.205   2.426 -0.2162 -0.5399  0.7626
 1821SOL    HW1 5598   3.131   1.240   2.507  1.2018  2.4210 -1.0352
 1821SOL    HW2 5599   3.160   1.146   2.392  1.0022  1.2545 -0.1410
 1822SOL     OW 5600   1.701   2.839   1.903 -0.6721  0.3252  0.0632
 1822SOL    HW1 5601   1.634   2.781   1.868 -0.1891 -0.4580  0.4337
 1822SOL    HW2 5602   1.679   2.925   1.866 -1.6410  0.0045 -0.1322
 1823SOL     OW 5603   1.807   3.344   2.991 -0.1974 -0.1957  0.3310
 1823SOL    HW1 5604   1.743   3.402   3.032 -0.0499 -0.1242  0.4629
 1823SOL    HW2 5605   1.775   3.332   2.901  0.6138  1.3929 -0.2126
 1824SOL     OW 5606   0.579   0.252   3.712 -0.2579 -0.2816 -0.0121
 1824SOL    HW1 5607   0.559   0.252   3.805  0.5967  1.1774  0.2068
 1824SOL    HW2 5608   0.574   0.344   3.686  1.7080 -0.3485 -0.8664
 1825SOL     OW 5609   3.738   0.251   2.363  0.3511  0.3150  0.0913
 1825SOL    HW1 5610   3.785   0.331   2.385  2.5964 -1.2907  1.5635
 1825SOL    HW2 5611   3.795   0.181   2.394  0.0171 -2.0274 -3.8661
 1826SOL     OW 5612   2.303   2.079   0.621  0.1731 -0.2050 -0.3299
 1826SOL    HW1 5613   2.374   2.023   0.653 -0.2889 -1.4305 -1.3455
 1826SOL    HW2 5614   2.336   2.168   0.631  0.6539 -0.5977  1.9979
 1827SOL     OW 5615   3.412   2.013   3.243  0.4921  0.2186 -0.0225
 1827SOL    HW1 5616   3.359   1.974   3.173  2.0339 -0.0399 -1.1142
 1827SOL    HW2 5617   3.469   1.942   3.271 -1.2216 -0.1801  2.7509
 1828SOL     OW 5618   2.370   2.043   2.499 -0.5998  0.3475  0.4080
 1828SOL    HW1 5619   2.285   2.085   2.489 -0.1553  1.0681 -0.4258
 1828SOL    HW2 5620   2.414   2.094   2.566 -1.1368 -0.5757  1.5155
 1829SOL     OW 5621   0.264   1.649   3.220 -0.3884  0.2406  0.1834
 1829SOL    HW1 5622   0.174   1.616   3.216 -1.4414  2.6741  1.7065
 1829SOL    HW2 5623   0.306   1.597   3.288 -0.3424 -1.3969 -1.0204
 1830SOL     OW 5624   3.741   2.074   2.642  0.1126 -0.6903 -0.2686
 1830SOL    HW1 5625   3.718   1.985   2.617  0.1316 -0.3946 -1.4185
 1830SOL    HW2 5626   3.802   2.103   2.574  1.5583 -0.4251  1.0929
 1831SOL     OW 5627   1.814   0.664   3.703  0.3749  0.0511  0.8795
 1831SOL    HW1 5628   1.778   0.585   3.743  0.0114  0.0089  0.4755
 1831SOL    HW2 5629   1.903   0.668   3.736  1.2745 -1.9234 -1.0240
 1832SOL     OW 5630   0.191   3.284   3.948  0.1369 -0.3560  0.5075
 1832SOL    HW1 5631   0.142   3.215   3.904 -0.9717  1.4095 -1.1609
 1832SOL    HW2 5632   0.283   3.264   3.929  0.0236 -2.4011  1.7295
 1833SOL     OW 5633   3.710   3.349   1.728 -0.1950  0.5218  0.4042
 1833SOL    HW1 5634   3.788   3.306   1.763  0.1255  0.7487 -0.0234
 1833SOL    HW2 5635   3.727   3.355   1.634 -1.7523 -1.6059 -0.0944
 1834SOL     OW 5636   1.347   1.143   3.447  0.1002 -0.3055  0.6347
 1834SOL    HW1 5637   1.394   1.192   3.514 -0.1603  3.5276 -1.6963
 1834SOL    HW2 5638   1.255   1.164   3.462  0.0395  0.6193 -0.8767
 1835SOL     OW 5639   0.606   2.317   3.545  0.1581  0.5013  0.4527
 1835SOL    HW1 5640   0.540   2.353   3.604  0.7716  1.0979  0.7874
 1835SOL    HW2 5641   0.682   2.301   3.601  0.7893  1.1989 -0.1883
 1836SOL     OW 5642   0.565   2.922   0.501  0.4371 -0.2839 -0.2622
 1836SOL    HW1 5643   0.559   2.939   0.595 -1.3051 -0.7951 -0.2434
 1836SOL    HW2 5644   0.644   2.969   0.473  1.8466 -1.3379  1.6993
 1837SOL     OW 5645   0.345   0.641   1.149  0.0759 -0.7440  0.0693
 1837SOL    HW1 5646   0.410   0.652   1.080  1.8397 -1.9088  1.4556
 1837SOL    HW2 5647   0.261   0.660   1.106  1.3498  1.7100 -1.5525
 1838SOL     OW 5648   0.893   3.939   0.760 -0.2351  0.1510  0.2880
 1838SOL    HW1 5649   0.909   3.858   0.711  0.7777  0.1686  0.5631
 1838SOL    HW2 5650   0.980   3.964   0.794 -0.5290  1.3655  0.1814
 1839SOL     OW 5651   1.005   1.767   0.304 -0.1830 -0.9304 -0.2089
 1839SOL    HW1 5652   1.088   1.719   0.308  0.4343  0.1385  0.4291
 1839SOL    HW2 5653   0.964   1.751   0.389  0.4518  0.3693  0.3629
 1840SOL     OW 5654   3.030   2.332   1.153 -0.8945  0.3771  0.1322
 1840SOL    HW1 5655   2.970   2.346   1.226  1.2011 -1.9707  2.4995
 1840SOL    HW2 5656   3.076   2.415   1.143 -2.5649  1.3396  0.1203
 1841SOL     OW 5657   3.464   1.708   0.365  0.2438  0.0004  0.1872
 1841SOL    HW1 5658   3.434   1.790   0.406 -2.6340 -1.2069  0.6926
 1841SOL    HW2 5659   3.425   1.708   0.278  0.0604 -0.9306  0.2617
 1842SOL     OW 5660   2.370   2.869   2.046 -0.1967 -1.0084 -0.4580
 1842SOL    HW1 5661   2.348   2.835   1.959 -0.4659 -0.2642 -0.6871
 1842SOL    HW2 5662   2.460   2.841   2.060  0.2709 -0.1048 -1.5039
 1843SOL     OW 5663   2.364   2.596   3.104  0.3056 -0.0431  0.2362
 1843SOL    HW1 5664   2.388   2.594   3.011 -2.7844  0.0358 -0.6870
 1843SOL    HW2 5665   2.389   2.684   3.133 -0.4644  0.6533 -1.1123
 1844SOL     OW 5666   0.479   3.518   2.120 -0.1913 -0.3038  0.4534
 1844SOL    HW1 5667   0.430   3.547   2.043 -3.3964 -2.4173  1.4681
 1844SOL    HW2 5668   0.559   3.570   2.119 -1.4642  1.8996 -2.6022
 1845SOL     OW 5669   3.745   3.728   1.136  0.3352  0.4372  0.4771
 1845SOL    HW1 5670   3.841   3.730   1.134  0.4372 -0.7938  2.1407
 1845SOL    HW2 5671   3.721   3.804   1.190  0.3858  0.5724  0.3099
 1846SOL     OW 5672   2.268   0.469   0.352 -0.1290  0.6395  0.5844
 1846SOL    HW1 5673   2.329   0.402   0.383  0.8351  1.6531  0.9182
 1846SOL    HW2 5674   2.268   0.536   0.420  0.8661  2.1779 -0.8559
 1847SOL     OW 5675   0.979   2.160   0.360 -0.0135  0.4266 -0.1324
 1847SOL    HW1 5676   0.917   2.099   0.400  0.2207  0.1904 -0.1261
 1847SOL    HW2 5677   1.046   2.174   0.427  0.0278  0.5508 -0.1995
 1848SOL     OW 5678   1.777   2.715   1.104 -0.0635 -0.0231 -0.6993
 1848SOL    HW1 5679   1.815   2.754   1.182  1.4828 -1.7133 -0.5372
 1848SOL    HW2 5680   1.851   2.675   1.058 -1.5491 -3.5296 -0.3458
 1849SOL     OW 5681   3.878   2.957   2.137  0.3961  0.1477  0.0205
 1849SOL    HW1 5682   3.853   2.999   2.055 -0.9476 -1.0828 -0.2437
 1849SOL    HW2 5683   3.892   3.029   2.198 -0.8789  1.0180 -0.6628
 1850SOL     OW 5684   2.383   2.912   2.396 -0.1554  0.2439  0.4059
 1850SOL    HW1 5685   2.428   2.953   2.470  2.1291  0.4367 -0.9988
 1850SOL    HW2 5686   2.384   2.979   2.328  0.0518 -0.7673 -0.6082
 1851SOL     OW 5687   0.050   3.176   0.576 -0.5195 -0.6260 -0.3881
 1851SOL    HW1 5688  -0.008   3.231   0.523 -1.1888 -1.1526 -0.2130
 1851SOL    HW2 5689   0.075   3.232   0.650 -1.9792 -0.8575  0.3078
 1852SOL     OW 5690   2.603   1.447   2.343  0.1152  0.6047 -0.5881
 1852SOL    HW1 5691   2.547   1.469   2.268 -0.2160 -0.3095 -0.6190
 1852SOL    HW2 5692   2.641   1.362   2.320 -1.0165 -0.3194  0.8545
 1853SOL     OW 5693   0.824   2.059   0.589 -0.3436  0.1639 -0.3037
 1853SOL    HW1 5694   0.866   1.978   0.619  0.0928  0.8010  0.8458
 1853SOL    HW2 5695   0.775   2.033   0.511  0.9971 -0.9057 -0.8165
 1854SOL     OW 5696   2.072   3.833   2.728  0.5334  0.0747 -0.2694
 1854SOL    HW1 5697   2.058   3.739   2.722  0.5608 -0.0121  0.7985
 1854SOL    HW2 5698   1.991   3.872   2.694 -0.8865 -0.3907  2.3751
 1855SOL     OW 5699   1.276   2.877   0.446  0.0585  0.1920  0.5977
 1855SOL    HW1 5700   1.199   2.928   0.474 -1.3347 -0.6812 -1.4286
 1855SOL    HW2 5701   1.289   2.901   0.355  0.9679 -1.1709  0.3424
 1856SOL     OW 5702   0.796   0.938   1.557  0.1995  0.4114  0.1688
 1856SOL    HW1 5703   0.766   0.945   1.647 -1.3412 -1.1995 -0.1595
 1856SOL    HW2 5704   0.715   0.927   1.506  1.0997  0.2117 -1.2756
 1857SOL     OW 5705   1.743   3.412   3.732 -0.3299  0.0494 -0.4711
 1857SOL    HW1 5706   1.816   3.448   3.782  0.8394 -0.0952 -1.9695
 1857SOL    HW2 5707   1.687   3.487   3.713 -1.6666 -0.1368  2.3032
 1858SOL     OW 5708   3.656   2.999   3.928  0.3892  0.6340  0.0414
 1858SOL    HW1 5709   3.594   2.926   3.932  0.5253  0.5258  0.1960
 1858SOL    HW2 5710   3.692   2.994   3.839  1.8292 -0.6881  0.6559
 1859SOL     OW 5711   3.312   3.742   1.027 -0.2498 -0.3066 -0.4354
 1859SOL    HW1 5712   3.303   3.698   0.942  1.9691 -2.4506  0.3092
 1859SOL    HW2 5713   3.345   3.829   1.006  2.1843 -1.4542 -1.8140
 1860SOL     OW 5714   3.294   1.338   3.069 -0.1979 -0.5837 -0.6584
 1860SOL    HW1 5715   3.312   1.428   3.098  0.8411 -0.9137 -0.2011
 1860SOL    HW2 5716   3.369   1.316   3.013 -1.0749 -0.7441 -1.8068
 1861SOL     OW 5717   1.399   1.449   0.956 -0.3036  0.0756  0.4436
 1861SOL    HW1 5718   1.355   1.511   1.014  0.7318  0.4694  0.8370
 1861SOL    HW2 5719   1.430   1.503   0.883 -0.5533 -0.2153  0.1166
 1862SOL     OW 5720   1.070   0.258   2.727 -0.3264  0.4186  0.0741
 1862SOL    HW1 5721   1.093   0.343   2.690  0.1514  0.2066 -0.1157
 1862SOL    HW2 5722   1.142   0.200   2.703 -1.5895 -0.5642 -1.6234
 1863SOL     OW 5723   3.462   3.485   1.426 -0.9390 -0.5897 -0.3573
 1863SOL    HW1 5724   3.481   3.521   1.340  0.1073 -0.9500 -0.2969
 1863SOL    HW2 5725   3.528   3.417   1.439 -0.0496  0.5126  1.3660
 1864SOL     OW 5726   0.346   2.054   0.741  0.5702 -0.1820  0.0163
 1864SOL    HW1 5727   0.431   2.084   0.710  0.4541 -0.5122 -0.6433
 1864SOL    HW2 5728   0.348   2.069   0.836  1.7731 -1.1699  0.1730
 1865SOL     OW 5729   1.735   0.642   0.297 -0.0406  0.4487 -0.6163
 1865SOL    HW1 5730   1.773   0.682   0.219  1.9178 -1.5587 -0.8027
 1865SOL    HW2 5731   1.788   0.675   0.369  0.4872 -0.4452 -0.5806
 1866SOL     OW 5732   3.434   2.657   1.495  0.5070  0.7932 -0.6133
 1866SOL    HW1 5733   3.495   2.587   1.473  0.2272 -0.5036  2.2455
 1866SOL    HW2 5734   3.347   2.617   1.488  0.1613  1.6325 -1.3816
 1867SOL     OW 5735   1.888   1.234   0.508  0.1295 -0.6967  0.2841
 1867SOL    HW1 5736   1.952   1.237   0.436  0.4809  1.8323  0.6063
 1867SOL    HW2 5737   1.829   1.163   0.484  0.8005 -0.5632 -2.0276
 1868SOL     OW 5738   2.009   2.870   2.388  0.5540 -0.1532 -1.0121
 1868SOL    HW1 5739   1.953   2.918   2.327  0.9096  0.3687 -0.9382
 1868SOL    HW2 5740   2.028   2.787   2.343 -0.3634 -0.3869 -0.9826
 1869SOL     OW 5741   3.757   3.630   3.780 -0.0643 -0.1797 -0.4322
 1869SOL    HW1 5742   3.750   3.617   3.874 -0.8129 -2.7641 -0.7587
 1869SOL    HW2 5743   3.670   3.611   3.746  0.3256  0.1917 -1.7076
 1870SOL     OW 5744   1.515   2.637   1.976  0.1316  0.1289  0.3857
 1870SOL    HW1 5745   1.454   2.563   1.979 -1.4121  1.3774  1.0659
 1870SOL    HW2 5746   1.459   2.714   1.972  1.6993  1.2721 -1.0171
 1871SOL     OW 5747   2.619   2.327   2.368 -0.2389 -0.0103  0.4754
 1871SOL    HW1 5748   2.610   2.422   2.361 -0.0472  0.0219  0.6443
 1871SOL    HW2 5749   2.600   2.308   2.460 -0.8587 -0.2040  0.3119
 1872SOL     OW 5750   3.223   2.078   0.065  0.1454  0.4716  0.3548
 1872SOL    HW1 5751   3.282   2.116   0.130 -0.3647  2.5129 -0.3069
 1872SOL    HW2 5752   3.140   2.123   0.079 -0.1177  0.5783 -1.3801
 1873SOL     OW 5753   1.793   2.864   3.519 -0.0678  0.6053 -0.1982
 1873SOL    HW1 5754   1.738   2.928   3.473 -2.0608  0.4123  1.7711
 1873SOL    HW2 5755   1.878   2.907   3.527 -1.3205  3.0485  1.0028
 1874SOL     OW 5756   3.169   2.565   1.538 -0.8122  0.2780 -0.1553
 1874SOL    HW1 5757   3.209   2.534   1.619 -0.5474 -0.2191 -0.4759
 1874SOL    HW2 5758   3.103   2.499   1.517 -0.3230 -0.0193 -0.7788
 1875SOL     OW 5759   3.287   0.705   1.637  0.7261 -0.3663 -0.8874
 1875SOL    HW1 5760   3.227   0.679   1.567 -0.2885  1.4497 -0.7473
 1875SOL    HW2 5761   3.245   0.675   1.717  1.3961 -1.5458 -0.9527
 1876SOL     OW 5762   0.319   1.014   0.843 -0.1563  0.4206  0.1390
 1876SOL    HW1 5763   0.337   1.037   0.752 -0.8982 -0.2797 -0.1997
 1876SOL    HW2 5764   0.392   0.959   0.869  0.9455  1.9827  0.5357
 1877SOL     OW 5765   2.130   0.711   3.779 -0.8351  0.3392 -0.1183
 1877SOL    HW1 5766   2.139   0.806   3.772 -3.0300  0.5524 -1.2187
 1877SOL    HW2 5767   2.217   0.680   3.803  1.1543  2.2644 -3.8111
 1878SOL     OW 5768   2.854   2.012   3.799 -0.0890 -0.1786  0.2143
 1878SOL    HW1 5769   2.833   1.931   3.845 -0.9149 -0.6308 -0.9006
 1878SOL    HW2 5770   2.788   2.075   3.828 -0.4372 -0.3840 -0.1122
 1879SOL     OW 5771   0.909   2.774   1.701  0.0782 -0.3236  0.0530
 1879SOL    HW1 5772   0.922   2.679   1.701 -0.2929 -0.3805 -0.0861
 1879SOL    HW2 5773   0.996   2.811   1.715  0.3052 -0.6773 -0.3874
 1880SOL     OW 5774   1.244   1.619   0.177 -0.0759  0.3217 -0.5475
 1880SOL    HW1 5775   1.335   1.599   0.200 -0.5979 -2.2199 -0.4259
 1880SOL    HW2 5776   1.251   1.677   0.100  1.6407 -0.3648 -0.9580
 1881SOL     OW 5777   1.968   1.705   0.823  0.3467 -0.2501  0.4354
 1881SOL    HW1 5778   1.935   1.790   0.794 -1.2619 -0.4531  1.4954
 1881SOL    HW2 5779   2.050   1.693   0.776 -0.8176  0.5751 -1.9427
 1882SOL     OW 5780   1.274   3.056   1.392 -0.9640 -0.3623  0.0843
 1882SOL    HW1 5781   1.326   2.983   1.359 -1.8151 -0.4956 -1.0217
 1882SOL    HW2 5782   1.188   3.019   1.407 -0.6724 -0.2564  2.3522
 1883SOL     OW 5783   3.800   1.009   1.512  0.2329 -0.4324 -0.2279
 1883SOL    HW1 5784   3.744   1.011   1.434 -0.0992 -1.0933 -0.0121
 1883SOL    HW2 5785   3.888   0.991   1.478  0.3706  0.7906 -0.5847
 1884SOL     OW 5786   3.775   0.661   2.944  0.2499 -0.4333 -0.3299
 1884SOL    HW1 5787   3.828   0.725   2.990  0.1406 -1.4490  1.2783
 1884SOL    HW2 5788   3.689   0.701   2.936  0.2992 -0.2054  0.2750
 1885SOL     OW 5789   3.943   2.275   0.264 -0.3391  0.2040 -0.4282
 1885SOL    HW1 5790   3.868   2.287   0.206 -0.4668 -0.7055 -0.4670
 1885SOL    HW2 5791   3.914   2.210   0.328 -0.4961  1.8017  1.2052
 1886SOL     OW 5792   0.773   2.700   1.029 -0.7170 -0.4690  0.1228
 1886SOL    HW1 5793   0.863   2.698   0.997 -0.5475  0.2612  0.5472
 1886SOL    HW2 5794   0.721   2.723   0.951 -0.5411 -0.8978 -0.1228
 1887SOL     OW 5795   0.642   0.347   0.560 -0.2814 -0.0533 -0.2430
 1887SOL    HW1 5796   0.671   0.307   0.478 -0.2016  0.4716 -0.4707
 1887SOL    HW2 5797   0.707   0.414   0.579  0.6388 -1.2867  1.1444
 1888SOL     OW 5798   3.760   3.070   1.900  0.2797 -0.3454 -0.3022
 1888SOL    HW1 5799   3.803   3.044   1.819  0.1884 -1.7902  0.0787
 1888SOL    HW2 5800   3.676   3.107   1.873  0.6822  0.1515 -0.9035
 1889SOL     OW 5801   0.161   1.284   1.280 -0.1660  0.7336  0.3381
 1889SOL    HW1 5802   0.203   1.247   1.202  2.6152  0.6736  1.7423
 1889SOL    HW2 5803   0.176   1.218   1.348 -0.6701  1.7042  1.4178
 1890SOL     OW 5804   3.773   0.865   1.719  0.7484  0.6128 -0.1552
 1890SOL    HW1 5805   3.789   0.940   1.662  1.4028  1.2990  0.8971
 1890SOL    HW2 5806   3.697   0.821   1.680 -0.7314  2.7616  0.1114
 1891SOL     OW 5807   1.026   3.009   1.038 -0.3872  0.4375 -0.4505
 1891SOL    HW1 5808   0.976   3.076   0.993 -1.3255  0.8739  1.1570
 1891SOL    HW2 5809   1.108   3.052   1.063  1.2160 -0.4633 -3.6649
 1892SOL     OW 5810   2.746   3.795   3.576 -0.1328  0.3975 -0.3328
 1892SOL    HW1 5811   2.757   3.768   3.668 -1.6553  0.9602  0.0494
 1892SOL    HW2 5812   2.770   3.887   3.575 -0.3311  0.4486 -0.4425
 1893SOL     OW 5813   1.339   0.944   2.827  0.1469  0.4179 -0.0844
 1893SOL    HW1 5814   1.386   1.026   2.811  3.0151 -0.9389  0.8329
 1893SOL    HW2 5815   1.351   0.926   2.920 -0.5420 -1.0006 -0.2325
 1894SOL     OW 5816   3.961   1.777   3.090  0.0516 -0.0322 -0.2506
 1894SOL    HW1 5817   3.904   1.830   3.035  0.0195 -1.0198 -1.2233
 1894SOL    HW2 5818   4.001   1.839   3.151 -2.2020  0.6778  0.6290
 1895SOL     OW 5819   3.053   1.795   0.223  0.6762 -0.2610  0.4854
 1895SOL    HW1 5820   3.076   1.704   0.205 -0.7520 -0.3776 -0.9267
 1895SOL    HW2 5821   3.129   1.845   0.193  1.7067 -0.9836  1.7804
 1896SOL     OW 5822   0.194   2.373   3.821  0.4686 -0.0761 -0.3519
 1896SOL    HW1 5823   0.108   2.411   3.841  0.6455 -0.5383  1.4512
 1896SOL    HW2 5824   0.257   2.440   3.849  0.8093 -1.7477  3.5320
 1897SOL     OW 5825   3.262   1.107   2.876 -0.1127 -0.3500  0.3347
 1897SOL    HW1 5826   3.275   1.107   2.971  0.9983 -0.4323  0.1932
 1897SOL    HW2 5827   3.214   1.026   2.858  0.9328 -1.0624  0.6773
 1898SOL     OW 5828   0.545   1.949   3.858 -0.2381 -0.5902 -0.3236
 1898SOL    HW1 5829   0.481   2.003   3.905 -0.6671 -1.7571  0.4708
 1898SOL    HW2 5830   0.537   1.977   3.767  0.9448  2.0682  0.2948
 1899SOL     OW 5831   1.362   3.687   1.669 -0.4364 -0.4496 -0.2674
 1899SOL    HW1 5832   1.374   3.725   1.756 -0.2246  0.4504 -0.6721
 1899SOL    HW2 5833   1.270   3.701   1.649 -0.2158  0.4838 -0.6880
 1900SOL     OW 5834   2.714   1.229   1.096 -0.0166  0.3204 -0.8730
 1900SOL    HW1 5835   2.777   1.158   1.083  0.9924  1.2044 -0.8598
 1900SOL    HW2 5836   2.672   1.239   1.010  1.6540  1.4106 -1.5990
 1901SOL     OW 5837   1.916   0.063   1.742 -0.0974  0.4567 -0.4731
 1901SOL    HW1 5838   1.979  -0.005   1.767  0.1822  0.7503 -0.3617
 1901SOL    HW2 5839   1.967   0.144   1.744 -0.5394  0.7306 -0.1481
 1902SOL     OW 5840   1.419   1.482   2.131  0.0688 -0.3209  0.4639
 1902SOL    HW1 5841   1.447   1.558   2.080 -0.0645  0.8456  2.0401
 1902SOL    HW2 5842   1.324   1.479   2.121  0.1478 -0.7575 -0.2098
 1903SOL     OW 5843   3.521   2.001   1.877 -0.1328 -0.1246  0.3128
 1903SOL    HW1 5844   3.525   1.958   1.962 -0.0450 -0.0552  0.3432
 1903SOL    HW2 5845   3.437   2.047   1.878  0.5234  1.0999  0.9441
 1904SOL     OW 5846   3.570   0.126   0.759  0.2860 -0.8943  0.0946
 1904SOL    HW1 5847   3.516   0.199   0.731 -0.3970 -0.5359  2.2213
 1904SOL    HW2 5848   3.657   0.164   0.772 -0.0268 -0.4635  1.0248
 1905SOL     OW 5849   0.555   3.053   0.733 -0.1883 -0.0290 -0.0508
 1905SOL    HW1 5850   0.460   3.045   0.736 -0.4949  2.4435 -1.0274
 1905SOL    HW2 5851   0.578   3.105   0.810  0.2873  0.0610 -0.2466
 1906SOL     OW 5852   1.388   1.852   1.548 -0.2331 -0.1319 -0.3664
 1906SOL    HW1 5853   1.368   1.814   1.462  3.7368  0.6497 -1.8562
 1906SOL    HW2 5854   1.400   1.945   1.531 -1.8466  0.5126  1.6339
 1907SOL     OW 5855   3.327   2.532   0.120 -0.0898 -0.0225 -0.1315
 1907SOL    HW1 5856   3.353   2.600   0.183 -1.8749  0.1572  0.4981
 1907SOL    HW2 5857   3.408   2.502   0.081  0.8951  1.3052  0.8081
 1908SOL     OW 5858   0.043   1.227   3.849  0.7475  0.0115  0.3999
 1908SOL    HW1 5859   0.059   1.262   3.762  1.9231 -2.9313 -0.6994
 1908SOL    HW2 5860  -0.024   1.284   3.886 -0.9164  0.5197 -3.0149
 1909SOL     OW 5861   3.847   1.655   1.534 -0.0620 -0.0436 -0.2093
 1909SOL    HW1 5862   3.874   1.637   1.624  0.2842  0.6202 -0.1712
 1909SOL    HW2 5863   3.903   1.728   1.507  0.5542 -0.8933 -1.3114
 1910SOL     OW 5864   3.623   0.147   3.508  0.0713 -0.0504 -0.1045
 1910SOL    HW1 5865   3.711   0.182   3.522  0.0376  0.3624 -0.8939
 1910SOL    HW2 5866   3.635   0.052   3.508  0.9554 -0.0173 -2.6128
 1911SOL     OW 5867   3.464   0.495   3.177 -0.2765 -0.5342 -0.9463
 1911SOL    HW1 5868   3.467   0.579   3.223 -1.2334 -0.9422 -0.0845
 1911SOL    HW2 5869   3.429   0.434   3.242 -0.1686 -1.4710 -1.7506
 1912SOL     OW 5870   2.659   1.528   1.854 -0.1755 -0.2197 -0.0766
 1912SOL    HW1 5871   2.652   1.555   1.945  0.6048  1.3936 -0.4657
 1912SOL    HW2 5872   2.619   1.441   1.852  0.0503 -0.4117  1.8468
 1913SOL     OW 5873   3.651   1.999   1.094  0.4717  0.1480  0.3742
 1913SOL    HW1 5874   3.587   1.992   1.164  1.6820 -0.8817  1.4430
 1913SOL    HW2 5875   3.617   2.067   1.036 -1.0260  0.3695  1.4691
 1914SOL     OW 5876   0.950   1.211   3.249  0.0699  0.6727 -0.4874
 1914SOL    HW1 5877   1.045   1.203   3.243  0.0751  0.0059  0.2284
 1914SOL    HW2 5878   0.917   1.174   3.167  0.3557 -1.3608  0.2410
 1915SOL     OW 5879   2.574   2.610   3.700 -0.4396  0.1509  0.5106
 1915SOL    HW1 5880   2.646   2.672   3.689 -0.8944  0.9123  1.6580
 1915SOL    HW2 5881   2.526   2.642   3.777 -0.2891 -1.9807  1.5725
 1916SOL     OW 5882   2.237   2.475   0.451  0.3543 -0.5005  0.0759
 1916SOL    HW1 5883   2.329   2.464   0.427  0.4009 -0.2653  0.1485
 1916SOL    HW2 5884   2.216   2.565   0.428 -0.7123 -1.3617 -2.8333
 1917SOL     OW 5885   3.828   3.861   3.145 -0.2466 -0.3873  0.2983
 1917SOL    HW1 5886   3.794   3.819   3.066  0.7349  0.9009 -0.8643
 1917SOL    HW2 5887   3.820   3.955   3.127  1.7333 -0.0592  0.9045
 1918NA      NA 5888   0.096   1.788   1.205  0.8538  0.2762 -0.1915
 1919NA      NA 5889   0.836   2.732   3.933 -0.2640  0.2004 -0.3002
   3.96100   3.96100   3.96100
